n -t 0 -s 0 -S DLABEL -l "UDP Source" -L ""
n -t 0 -s 1 -S DLABEL -l "TCP source" -L ""
n -t 0 -s 2 -S DLABEL -l "TCP & UDP Dest." -L ""
V -t * -v 1.0a5 -a 0
A -t * -n 1 -p 0 -o 0x7fffffff -c 30 -a 1
A -t * -h 1 -m 1073741823 -s 0
c -t * -i 1 -n Blue
c -t * -i 2 -n Red
n -t * -a 0 -s 0 -S UP -v circle -c black -i black
n -t * -a 1 -s 1 -S UP -v circle -c black -i black
n -t * -a 2 -s 2 -S UP -v circle -c black -i black
l -t * -s 0 -d 1 -S UP -r 1000000 -D 0.01 -c black -o right
l -t * -s 1 -d 2 -S UP -r 1000000 -D 0.01 -c black -o down
+ -t 0.5 -s 0 -d 1 -p cbr -e 500 -c 1 -i 0 -a 1 -x {0.0 2.0 0 ------- null}
- -t 0.5 -s 0 -d 1 -p cbr -e 500 -c 1 -i 0 -a 1 -x {0.0 2.0 0 ------- null}
h -t 0.5 -s 0 -d 1 -p cbr -e 500 -c 1 -i 0 -a 1 -x {0.0 2.0 -1 ------- null}
+ -t 0.501 -s 0 -d 1 -p cbr -e 500 -c 1 -i 1 -a 1 -x {0.0 2.0 1 ------- null}
+ -t 0.502 -s 0 -d 1 -p cbr -e 500 -c 1 -i 2 -a 1 -x {0.0 2.0 2 ------- null}
+ -t 0.503 -s 0 -d 1 -p cbr -e 500 -c 1 -i 3 -a 1 -x {0.0 2.0 3 ------- null}
- -t 0.504 -s 0 -d 1 -p cbr -e 500 -c 1 -i 1 -a 1 -x {0.0 2.0 1 ------- null}
h -t 0.504 -s 0 -d 1 -p cbr -e 500 -c 1 -i 1 -a 1 -x {0.0 2.0 -1 ------- null}
+ -t 0.504 -s 0 -d 1 -p cbr -e 500 -c 1 -i 4 -a 1 -x {0.0 2.0 4 ------- null}
+ -t 0.505 -s 0 -d 1 -p cbr -e 500 -c 1 -i 5 -a 1 -x {0.0 2.0 5 ------- null}
+ -t 0.506 -s 0 -d 1 -p cbr -e 500 -c 1 -i 6 -a 1 -x {0.0 2.0 6 ------- null}
+ -t 0.507 -s 0 -d 1 -p cbr -e 500 -c 1 -i 7 -a 1 -x {0.0 2.0 7 ------- null}
- -t 0.508 -s 0 -d 1 -p cbr -e 500 -c 1 -i 2 -a 1 -x {0.0 2.0 2 ------- null}
h -t 0.508 -s 0 -d 1 -p cbr -e 500 -c 1 -i 2 -a 1 -x {0.0 2.0 -1 ------- null}
+ -t 0.508 -s 0 -d 1 -p cbr -e 500 -c 1 -i 8 -a 1 -x {0.0 2.0 8 ------- null}
+ -t 0.509 -s 0 -d 1 -p cbr -e 500 -c 1 -i 9 -a 1 -x {0.0 2.0 9 ------- null}
+ -t 0.51 -s 0 -d 1 -p cbr -e 500 -c 1 -i 10 -a 1 -x {0.0 2.0 10 ------- null}
+ -t 0.511 -s 0 -d 1 -p cbr -e 500 -c 1 -i 11 -a 1 -x {0.0 2.0 11 ------- null}
- -t 0.512 -s 0 -d 1 -p cbr -e 500 -c 1 -i 3 -a 1 -x {0.0 2.0 3 ------- null}
h -t 0.512 -s 0 -d 1 -p cbr -e 500 -c 1 -i 3 -a 1 -x {0.0 2.0 -1 ------- null}
+ -t 0.512 -s 0 -d 1 -p cbr -e 500 -c 1 -i 12 -a 1 -x {0.0 2.0 12 ------- null}
+ -t 0.513 -s 0 -d 1 -p cbr -e 500 -c 1 -i 13 -a 1 -x {0.0 2.0 13 ------- null}
r -t 0.514 -s 0 -d 1 -p cbr -e 500 -c 1 -i 0 -a 1 -x {0.0 2.0 0 ------- null}
+ -t 0.514 -s 1 -d 2 -p cbr -e 500 -c 1 -i 0 -a 1 -x {0.0 2.0 0 ------- null}
- -t 0.514 -s 1 -d 2 -p cbr -e 500 -c 1 -i 0 -a 1 -x {0.0 2.0 0 ------- null}
h -t 0.514 -s 1 -d 2 -p cbr -e 500 -c 1 -i 0 -a 1 -x {0.0 2.0 -1 ------- null}
+ -t 0.514 -s 0 -d 1 -p cbr -e 500 -c 1 -i 14 -a 1 -x {0.0 2.0 14 ------- null}
+ -t 0.515 -s 0 -d 1 -p cbr -e 500 -c 1 -i 15 -a 1 -x {0.0 2.0 15 ------- null}
- -t 0.516 -s 0 -d 1 -p cbr -e 500 -c 1 -i 4 -a 1 -x {0.0 2.0 4 ------- null}
h -t 0.516 -s 0 -d 1 -p cbr -e 500 -c 1 -i 4 -a 1 -x {0.0 2.0 -1 ------- null}
+ -t 0.516 -s 0 -d 1 -p cbr -e 500 -c 1 -i 16 -a 1 -x {0.0 2.0 16 ------- null}
+ -t 0.517 -s 0 -d 1 -p cbr -e 500 -c 1 -i 17 -a 1 -x {0.0 2.0 17 ------- null}
r -t 0.518 -s 0 -d 1 -p cbr -e 500 -c 1 -i 1 -a 1 -x {0.0 2.0 1 ------- null}
+ -t 0.518 -s 1 -d 2 -p cbr -e 500 -c 1 -i 1 -a 1 -x {0.0 2.0 1 ------- null}
- -t 0.518 -s 1 -d 2 -p cbr -e 500 -c 1 -i 1 -a 1 -x {0.0 2.0 1 ------- null}
h -t 0.518 -s 1 -d 2 -p cbr -e 500 -c 1 -i 1 -a 1 -x {0.0 2.0 -1 ------- null}
+ -t 0.518 -s 0 -d 1 -p cbr -e 500 -c 1 -i 18 -a 1 -x {0.0 2.0 18 ------- null}
+ -t 0.519 -s 0 -d 1 -p cbr -e 500 -c 1 -i 19 -a 1 -x {0.0 2.0 19 ------- null}
- -t 0.52 -s 0 -d 1 -p cbr -e 500 -c 1 -i 5 -a 1 -x {0.0 2.0 5 ------- null}
h -t 0.52 -s 0 -d 1 -p cbr -e 500 -c 1 -i 5 -a 1 -x {0.0 2.0 -1 ------- null}
+ -t 0.52 -s 0 -d 1 -p cbr -e 500 -c 1 -i 20 -a 1 -x {0.0 2.0 20 ------- null}
+ -t 0.521 -s 0 -d 1 -p cbr -e 500 -c 1 -i 21 -a 1 -x {0.0 2.0 21 ------- null}
r -t 0.522 -s 0 -d 1 -p cbr -e 500 -c 1 -i 2 -a 1 -x {0.0 2.0 2 ------- null}
+ -t 0.522 -s 1 -d 2 -p cbr -e 500 -c 1 -i 2 -a 1 -x {0.0 2.0 2 ------- null}
- -t 0.522 -s 1 -d 2 -p cbr -e 500 -c 1 -i 2 -a 1 -x {0.0 2.0 2 ------- null}
h -t 0.522 -s 1 -d 2 -p cbr -e 500 -c 1 -i 2 -a 1 -x {0.0 2.0 -1 ------- null}
+ -t 0.522 -s 0 -d 1 -p cbr -e 500 -c 1 -i 22 -a 1 -x {0.0 2.0 22 ------- null}
+ -t 0.523 -s 0 -d 1 -p cbr -e 500 -c 1 -i 23 -a 1 -x {0.0 2.0 23 ------- null}
- -t 0.524 -s 0 -d 1 -p cbr -e 500 -c 1 -i 6 -a 1 -x {0.0 2.0 6 ------- null}
h -t 0.524 -s 0 -d 1 -p cbr -e 500 -c 1 -i 6 -a 1 -x {0.0 2.0 -1 ------- null}
+ -t 0.524 -s 0 -d 1 -p cbr -e 500 -c 1 -i 24 -a 1 -x {0.0 2.0 24 ------- null}
+ -t 0.525 -s 0 -d 1 -p cbr -e 500 -c 1 -i 25 -a 1 -x {0.0 2.0 25 ------- null}
r -t 0.526 -s 0 -d 1 -p cbr -e 500 -c 1 -i 3 -a 1 -x {0.0 2.0 3 ------- null}
+ -t 0.526 -s 1 -d 2 -p cbr -e 500 -c 1 -i 3 -a 1 -x {0.0 2.0 3 ------- null}
- -t 0.526 -s 1 -d 2 -p cbr -e 500 -c 1 -i 3 -a 1 -x {0.0 2.0 3 ------- null}
h -t 0.526 -s 1 -d 2 -p cbr -e 500 -c 1 -i 3 -a 1 -x {0.0 2.0 -1 ------- null}
+ -t 0.526 -s 0 -d 1 -p cbr -e 500 -c 1 -i 26 -a 1 -x {0.0 2.0 26 ------- null}
+ -t 0.527 -s 0 -d 1 -p cbr -e 500 -c 1 -i 27 -a 1 -x {0.0 2.0 27 ------- null}
r -t 0.528 -s 1 -d 2 -p cbr -e 500 -c 1 -i 0 -a 1 -x {0.0 2.0 0 ------- null}
- -t 0.528 -s 0 -d 1 -p cbr -e 500 -c 1 -i 7 -a 1 -x {0.0 2.0 7 ------- null}
h -t 0.528 -s 0 -d 1 -p cbr -e 500 -c 1 -i 7 -a 1 -x {0.0 2.0 -1 ------- null}
+ -t 0.528 -s 0 -d 1 -p cbr -e 500 -c 1 -i 28 -a 1 -x {0.0 2.0 28 ------- null}
+ -t 0.529 -s 0 -d 1 -p cbr -e 500 -c 1 -i 29 -a 1 -x {0.0 2.0 29 ------- null}
r -t 0.53 -s 0 -d 1 -p cbr -e 500 -c 1 -i 4 -a 1 -x {0.0 2.0 4 ------- null}
+ -t 0.53 -s 1 -d 2 -p cbr -e 500 -c 1 -i 4 -a 1 -x {0.0 2.0 4 ------- null}
- -t 0.53 -s 1 -d 2 -p cbr -e 500 -c 1 -i 4 -a 1 -x {0.0 2.0 4 ------- null}
h -t 0.53 -s 1 -d 2 -p cbr -e 500 -c 1 -i 4 -a 1 -x {0.0 2.0 -1 ------- null}
+ -t 0.53 -s 0 -d 1 -p cbr -e 500 -c 1 -i 30 -a 1 -x {0.0 2.0 30 ------- null}
+ -t 0.531 -s 0 -d 1 -p cbr -e 500 -c 1 -i 31 -a 1 -x {0.0 2.0 31 ------- null}
r -t 0.532 -s 1 -d 2 -p cbr -e 500 -c 1 -i 1 -a 1 -x {0.0 2.0 1 ------- null}
- -t 0.532 -s 0 -d 1 -p cbr -e 500 -c 1 -i 8 -a 1 -x {0.0 2.0 8 ------- null}
h -t 0.532 -s 0 -d 1 -p cbr -e 500 -c 1 -i 8 -a 1 -x {0.0 2.0 -1 ------- null}
+ -t 0.532 -s 0 -d 1 -p cbr -e 500 -c 1 -i 32 -a 1 -x {0.0 2.0 32 ------- null}
+ -t 0.533 -s 0 -d 1 -p cbr -e 500 -c 1 -i 33 -a 1 -x {0.0 2.0 33 ------- null}
r -t 0.534 -s 0 -d 1 -p cbr -e 500 -c 1 -i 5 -a 1 -x {0.0 2.0 5 ------- null}
+ -t 0.534 -s 1 -d 2 -p cbr -e 500 -c 1 -i 5 -a 1 -x {0.0 2.0 5 ------- null}
- -t 0.534 -s 1 -d 2 -p cbr -e 500 -c 1 -i 5 -a 1 -x {0.0 2.0 5 ------- null}
h -t 0.534 -s 1 -d 2 -p cbr -e 500 -c 1 -i 5 -a 1 -x {0.0 2.0 -1 ------- null}
+ -t 0.534 -s 0 -d 1 -p cbr -e 500 -c 1 -i 34 -a 1 -x {0.0 2.0 34 ------- null}
+ -t 0.535 -s 0 -d 1 -p cbr -e 500 -c 1 -i 35 -a 1 -x {0.0 2.0 35 ------- null}
r -t 0.536 -s 1 -d 2 -p cbr -e 500 -c 1 -i 2 -a 1 -x {0.0 2.0 2 ------- null}
- -t 0.536 -s 0 -d 1 -p cbr -e 500 -c 1 -i 9 -a 1 -x {0.0 2.0 9 ------- null}
h -t 0.536 -s 0 -d 1 -p cbr -e 500 -c 1 -i 9 -a 1 -x {0.0 2.0 -1 ------- null}
+ -t 0.536 -s 0 -d 1 -p cbr -e 500 -c 1 -i 36 -a 1 -x {0.0 2.0 36 ------- null}
+ -t 0.537 -s 0 -d 1 -p cbr -e 500 -c 1 -i 37 -a 1 -x {0.0 2.0 37 ------- null}
r -t 0.538 -s 0 -d 1 -p cbr -e 500 -c 1 -i 6 -a 1 -x {0.0 2.0 6 ------- null}
+ -t 0.538 -s 1 -d 2 -p cbr -e 500 -c 1 -i 6 -a 1 -x {0.0 2.0 6 ------- null}
- -t 0.538 -s 1 -d 2 -p cbr -e 500 -c 1 -i 6 -a 1 -x {0.0 2.0 6 ------- null}
h -t 0.538 -s 1 -d 2 -p cbr -e 500 -c 1 -i 6 -a 1 -x {0.0 2.0 -1 ------- null}
+ -t 0.538 -s 0 -d 1 -p cbr -e 500 -c 1 -i 38 -a 1 -x {0.0 2.0 38 ------- null}
+ -t 0.539 -s 0 -d 1 -p cbr -e 500 -c 1 -i 39 -a 1 -x {0.0 2.0 39 ------- null}
r -t 0.54 -s 1 -d 2 -p cbr -e 500 -c 1 -i 3 -a 1 -x {0.0 2.0 3 ------- null}
- -t 0.54 -s 0 -d 1 -p cbr -e 500 -c 1 -i 10 -a 1 -x {0.0 2.0 10 ------- null}
h -t 0.54 -s 0 -d 1 -p cbr -e 500 -c 1 -i 10 -a 1 -x {0.0 2.0 -1 ------- null}
+ -t 0.54 -s 0 -d 1 -p cbr -e 500 -c 1 -i 40 -a 1 -x {0.0 2.0 40 ------- null}
+ -t 0.541 -s 0 -d 1 -p cbr -e 500 -c 1 -i 41 -a 1 -x {0.0 2.0 41 ------- null}
r -t 0.542 -s 0 -d 1 -p cbr -e 500 -c 1 -i 7 -a 1 -x {0.0 2.0 7 ------- null}
+ -t 0.542 -s 1 -d 2 -p cbr -e 500 -c 1 -i 7 -a 1 -x {0.0 2.0 7 ------- null}
- -t 0.542 -s 1 -d 2 -p cbr -e 500 -c 1 -i 7 -a 1 -x {0.0 2.0 7 ------- null}
h -t 0.542 -s 1 -d 2 -p cbr -e 500 -c 1 -i 7 -a 1 -x {0.0 2.0 -1 ------- null}
+ -t 0.542 -s 0 -d 1 -p cbr -e 500 -c 1 -i 42 -a 1 -x {0.0 2.0 42 ------- null}
+ -t 0.543 -s 0 -d 1 -p cbr -e 500 -c 1 -i 43 -a 1 -x {0.0 2.0 43 ------- null}
r -t 0.544 -s 1 -d 2 -p cbr -e 500 -c 1 -i 4 -a 1 -x {0.0 2.0 4 ------- null}
- -t 0.544 -s 0 -d 1 -p cbr -e 500 -c 1 -i 11 -a 1 -x {0.0 2.0 11 ------- null}
h -t 0.544 -s 0 -d 1 -p cbr -e 500 -c 1 -i 11 -a 1 -x {0.0 2.0 -1 ------- null}
+ -t 0.544 -s 0 -d 1 -p cbr -e 500 -c 1 -i 44 -a 1 -x {0.0 2.0 44 ------- null}
+ -t 0.545 -s 0 -d 1 -p cbr -e 500 -c 1 -i 45 -a 1 -x {0.0 2.0 45 ------- null}
r -t 0.546 -s 0 -d 1 -p cbr -e 500 -c 1 -i 8 -a 1 -x {0.0 2.0 8 ------- null}
+ -t 0.546 -s 1 -d 2 -p cbr -e 500 -c 1 -i 8 -a 1 -x {0.0 2.0 8 ------- null}
- -t 0.546 -s 1 -d 2 -p cbr -e 500 -c 1 -i 8 -a 1 -x {0.0 2.0 8 ------- null}
h -t 0.546 -s 1 -d 2 -p cbr -e 500 -c 1 -i 8 -a 1 -x {0.0 2.0 -1 ------- null}
+ -t 0.546 -s 0 -d 1 -p cbr -e 500 -c 1 -i 46 -a 1 -x {0.0 2.0 46 ------- null}
+ -t 0.547 -s 0 -d 1 -p cbr -e 500 -c 1 -i 47 -a 1 -x {0.0 2.0 47 ------- null}
r -t 0.548 -s 1 -d 2 -p cbr -e 500 -c 1 -i 5 -a 1 -x {0.0 2.0 5 ------- null}
- -t 0.548 -s 0 -d 1 -p cbr -e 500 -c 1 -i 12 -a 1 -x {0.0 2.0 12 ------- null}
h -t 0.548 -s 0 -d 1 -p cbr -e 500 -c 1 -i 12 -a 1 -x {0.0 2.0 -1 ------- null}
+ -t 0.548 -s 0 -d 1 -p cbr -e 500 -c 1 -i 48 -a 1 -x {0.0 2.0 48 ------- null}
+ -t 0.549 -s 0 -d 1 -p cbr -e 500 -c 1 -i 49 -a 1 -x {0.0 2.0 49 ------- null}
r -t 0.55 -s 0 -d 1 -p cbr -e 500 -c 1 -i 9 -a 1 -x {0.0 2.0 9 ------- null}
+ -t 0.55 -s 1 -d 2 -p cbr -e 500 -c 1 -i 9 -a 1 -x {0.0 2.0 9 ------- null}
- -t 0.55 -s 1 -d 2 -p cbr -e 500 -c 1 -i 9 -a 1 -x {0.0 2.0 9 ------- null}
h -t 0.55 -s 1 -d 2 -p cbr -e 500 -c 1 -i 9 -a 1 -x {0.0 2.0 -1 ------- null}
+ -t 0.55 -s 0 -d 1 -p cbr -e 500 -c 1 -i 50 -a 1 -x {0.0 2.0 50 ------- null}
+ -t 0.551 -s 0 -d 1 -p cbr -e 500 -c 1 -i 51 -a 1 -x {0.0 2.0 51 ------- null}
r -t 0.552 -s 1 -d 2 -p cbr -e 500 -c 1 -i 6 -a 1 -x {0.0 2.0 6 ------- null}
- -t 0.552 -s 0 -d 1 -p cbr -e 500 -c 1 -i 13 -a 1 -x {0.0 2.0 13 ------- null}
h -t 0.552 -s 0 -d 1 -p cbr -e 500 -c 1 -i 13 -a 1 -x {0.0 2.0 -1 ------- null}
+ -t 0.552 -s 0 -d 1 -p cbr -e 500 -c 1 -i 52 -a 1 -x {0.0 2.0 52 ------- null}
+ -t 0.553 -s 0 -d 1 -p cbr -e 500 -c 1 -i 53 -a 1 -x {0.0 2.0 53 ------- null}
r -t 0.554 -s 0 -d 1 -p cbr -e 500 -c 1 -i 10 -a 1 -x {0.0 2.0 10 ------- null}
+ -t 0.554 -s 1 -d 2 -p cbr -e 500 -c 1 -i 10 -a 1 -x {0.0 2.0 10 ------- null}
- -t 0.554 -s 1 -d 2 -p cbr -e 500 -c 1 -i 10 -a 1 -x {0.0 2.0 10 ------- null}
h -t 0.554 -s 1 -d 2 -p cbr -e 500 -c 1 -i 10 -a 1 -x {0.0 2.0 -1 ------- null}
+ -t 0.554 -s 0 -d 1 -p cbr -e 500 -c 1 -i 54 -a 1 -x {0.0 2.0 54 ------- null}
+ -t 0.555 -s 0 -d 1 -p cbr -e 500 -c 1 -i 55 -a 1 -x {0.0 2.0 55 ------- null}
r -t 0.556 -s 1 -d 2 -p cbr -e 500 -c 1 -i 7 -a 1 -x {0.0 2.0 7 ------- null}
- -t 0.556 -s 0 -d 1 -p cbr -e 500 -c 1 -i 14 -a 1 -x {0.0 2.0 14 ------- null}
h -t 0.556 -s 0 -d 1 -p cbr -e 500 -c 1 -i 14 -a 1 -x {0.0 2.0 -1 ------- null}
+ -t 0.556 -s 0 -d 1 -p cbr -e 500 -c 1 -i 56 -a 1 -x {0.0 2.0 56 ------- null}
+ -t 0.557 -s 0 -d 1 -p cbr -e 500 -c 1 -i 57 -a 1 -x {0.0 2.0 57 ------- null}
r -t 0.558 -s 0 -d 1 -p cbr -e 500 -c 1 -i 11 -a 1 -x {0.0 2.0 11 ------- null}
+ -t 0.558 -s 1 -d 2 -p cbr -e 500 -c 1 -i 11 -a 1 -x {0.0 2.0 11 ------- null}
- -t 0.558 -s 1 -d 2 -p cbr -e 500 -c 1 -i 11 -a 1 -x {0.0 2.0 11 ------- null}
h -t 0.558 -s 1 -d 2 -p cbr -e 500 -c 1 -i 11 -a 1 -x {0.0 2.0 -1 ------- null}
+ -t 0.558 -s 0 -d 1 -p cbr -e 500 -c 1 -i 58 -a 1 -x {0.0 2.0 58 ------- null}
+ -t 0.559 -s 0 -d 1 -p cbr -e 500 -c 1 -i 59 -a 1 -x {0.0 2.0 59 ------- null}
r -t 0.56 -s 1 -d 2 -p cbr -e 500 -c 1 -i 8 -a 1 -x {0.0 2.0 8 ------- null}
- -t 0.56 -s 0 -d 1 -p cbr -e 500 -c 1 -i 15 -a 1 -x {0.0 2.0 15 ------- null}
h -t 0.56 -s 0 -d 1 -p cbr -e 500 -c 1 -i 15 -a 1 -x {0.0 2.0 -1 ------- null}
+ -t 0.56 -s 0 -d 1 -p cbr -e 500 -c 1 -i 60 -a 1 -x {0.0 2.0 60 ------- null}
+ -t 0.561 -s 0 -d 1 -p cbr -e 500 -c 1 -i 61 -a 1 -x {0.0 2.0 61 ------- null}
r -t 0.562 -s 0 -d 1 -p cbr -e 500 -c 1 -i 12 -a 1 -x {0.0 2.0 12 ------- null}
+ -t 0.562 -s 1 -d 2 -p cbr -e 500 -c 1 -i 12 -a 1 -x {0.0 2.0 12 ------- null}
- -t 0.562 -s 1 -d 2 -p cbr -e 500 -c 1 -i 12 -a 1 -x {0.0 2.0 12 ------- null}
h -t 0.562 -s 1 -d 2 -p cbr -e 500 -c 1 -i 12 -a 1 -x {0.0 2.0 -1 ------- null}
+ -t 0.562 -s 0 -d 1 -p cbr -e 500 -c 1 -i 62 -a 1 -x {0.0 2.0 62 ------- null}
+ -t 0.563 -s 0 -d 1 -p cbr -e 500 -c 1 -i 63 -a 1 -x {0.0 2.0 63 ------- null}
r -t 0.564 -s 1 -d 2 -p cbr -e 500 -c 1 -i 9 -a 1 -x {0.0 2.0 9 ------- null}
- -t 0.564 -s 0 -d 1 -p cbr -e 500 -c 1 -i 16 -a 1 -x {0.0 2.0 16 ------- null}
h -t 0.564 -s 0 -d 1 -p cbr -e 500 -c 1 -i 16 -a 1 -x {0.0 2.0 -1 ------- null}
+ -t 0.564 -s 0 -d 1 -p cbr -e 500 -c 1 -i 64 -a 1 -x {0.0 2.0 64 ------- null}
+ -t 0.565 -s 0 -d 1 -p cbr -e 500 -c 1 -i 65 -a 1 -x {0.0 2.0 65 ------- null}
r -t 0.566 -s 0 -d 1 -p cbr -e 500 -c 1 -i 13 -a 1 -x {0.0 2.0 13 ------- null}
+ -t 0.566 -s 1 -d 2 -p cbr -e 500 -c 1 -i 13 -a 1 -x {0.0 2.0 13 ------- null}
- -t 0.566 -s 1 -d 2 -p cbr -e 500 -c 1 -i 13 -a 1 -x {0.0 2.0 13 ------- null}
h -t 0.566 -s 1 -d 2 -p cbr -e 500 -c 1 -i 13 -a 1 -x {0.0 2.0 -1 ------- null}
+ -t 0.566 -s 0 -d 1 -p cbr -e 500 -c 1 -i 66 -a 1 -x {0.0 2.0 66 ------- null}
d -t 0.566 -s 0 -d 1 -p cbr -e 500 -c 1 -i 66 -a 1 -x {0.0 2.0 66 ------- null}
+ -t 0.567 -s 0 -d 1 -p cbr -e 500 -c 1 -i 67 -a 1 -x {0.0 2.0 67 ------- null}
d -t 0.567 -s 0 -d 1 -p cbr -e 500 -c 1 -i 67 -a 1 -x {0.0 2.0 67 ------- null}
r -t 0.568 -s 1 -d 2 -p cbr -e 500 -c 1 -i 10 -a 1 -x {0.0 2.0 10 ------- null}
- -t 0.568 -s 0 -d 1 -p cbr -e 500 -c 1 -i 17 -a 1 -x {0.0 2.0 17 ------- null}
h -t 0.568 -s 0 -d 1 -p cbr -e 500 -c 1 -i 17 -a 1 -x {0.0 2.0 -1 ------- null}
+ -t 0.568 -s 0 -d 1 -p cbr -e 500 -c 1 -i 68 -a 1 -x {0.0 2.0 68 ------- null}
+ -t 0.569 -s 0 -d 1 -p cbr -e 500 -c 1 -i 69 -a 1 -x {0.0 2.0 69 ------- null}
d -t 0.569 -s 0 -d 1 -p cbr -e 500 -c 1 -i 69 -a 1 -x {0.0 2.0 69 ------- null}
r -t 0.57 -s 0 -d 1 -p cbr -e 500 -c 1 -i 14 -a 1 -x {0.0 2.0 14 ------- null}
+ -t 0.57 -s 1 -d 2 -p cbr -e 500 -c 1 -i 14 -a 1 -x {0.0 2.0 14 ------- null}
- -t 0.57 -s 1 -d 2 -p cbr -e 500 -c 1 -i 14 -a 1 -x {0.0 2.0 14 ------- null}
h -t 0.57 -s 1 -d 2 -p cbr -e 500 -c 1 -i 14 -a 1 -x {0.0 2.0 -1 ------- null}
+ -t 0.57 -s 0 -d 1 -p cbr -e 500 -c 1 -i 70 -a 1 -x {0.0 2.0 70 ------- null}
d -t 0.57 -s 0 -d 1 -p cbr -e 500 -c 1 -i 70 -a 1 -x {0.0 2.0 70 ------- null}
+ -t 0.571 -s 0 -d 1 -p cbr -e 500 -c 1 -i 71 -a 1 -x {0.0 2.0 71 ------- null}
d -t 0.571 -s 0 -d 1 -p cbr -e 500 -c 1 -i 71 -a 1 -x {0.0 2.0 71 ------- null}
r -t 0.572 -s 1 -d 2 -p cbr -e 500 -c 1 -i 11 -a 1 -x {0.0 2.0 11 ------- null}
- -t 0.572 -s 0 -d 1 -p cbr -e 500 -c 1 -i 18 -a 1 -x {0.0 2.0 18 ------- null}
h -t 0.572 -s 0 -d 1 -p cbr -e 500 -c 1 -i 18 -a 1 -x {0.0 2.0 -1 ------- null}
+ -t 0.572 -s 0 -d 1 -p cbr -e 500 -c 1 -i 72 -a 1 -x {0.0 2.0 72 ------- null}
+ -t 0.573 -s 0 -d 1 -p cbr -e 500 -c 1 -i 73 -a 1 -x {0.0 2.0 73 ------- null}
d -t 0.573 -s 0 -d 1 -p cbr -e 500 -c 1 -i 73 -a 1 -x {0.0 2.0 73 ------- null}
r -t 0.574 -s 0 -d 1 -p cbr -e 500 -c 1 -i 15 -a 1 -x {0.0 2.0 15 ------- null}
+ -t 0.574 -s 1 -d 2 -p cbr -e 500 -c 1 -i 15 -a 1 -x {0.0 2.0 15 ------- null}
- -t 0.574 -s 1 -d 2 -p cbr -e 500 -c 1 -i 15 -a 1 -x {0.0 2.0 15 ------- null}
h -t 0.574 -s 1 -d 2 -p cbr -e 500 -c 1 -i 15 -a 1 -x {0.0 2.0 -1 ------- null}
+ -t 0.574 -s 0 -d 1 -p cbr -e 500 -c 1 -i 74 -a 1 -x {0.0 2.0 74 ------- null}
d -t 0.574 -s 0 -d 1 -p cbr -e 500 -c 1 -i 74 -a 1 -x {0.0 2.0 74 ------- null}
+ -t 0.575 -s 0 -d 1 -p cbr -e 500 -c 1 -i 75 -a 1 -x {0.0 2.0 75 ------- null}
d -t 0.575 -s 0 -d 1 -p cbr -e 500 -c 1 -i 75 -a 1 -x {0.0 2.0 75 ------- null}
r -t 0.576 -s 1 -d 2 -p cbr -e 500 -c 1 -i 12 -a 1 -x {0.0 2.0 12 ------- null}
- -t 0.576 -s 0 -d 1 -p cbr -e 500 -c 1 -i 19 -a 1 -x {0.0 2.0 19 ------- null}
h -t 0.576 -s 0 -d 1 -p cbr -e 500 -c 1 -i 19 -a 1 -x {0.0 2.0 -1 ------- null}
+ -t 0.576 -s 0 -d 1 -p cbr -e 500 -c 1 -i 76 -a 1 -x {0.0 2.0 76 ------- null}
+ -t 0.577 -s 0 -d 1 -p cbr -e 500 -c 1 -i 77 -a 1 -x {0.0 2.0 77 ------- null}
d -t 0.577 -s 0 -d 1 -p cbr -e 500 -c 1 -i 77 -a 1 -x {0.0 2.0 77 ------- null}
r -t 0.578 -s 0 -d 1 -p cbr -e 500 -c 1 -i 16 -a 1 -x {0.0 2.0 16 ------- null}
+ -t 0.578 -s 1 -d 2 -p cbr -e 500 -c 1 -i 16 -a 1 -x {0.0 2.0 16 ------- null}
- -t 0.578 -s 1 -d 2 -p cbr -e 500 -c 1 -i 16 -a 1 -x {0.0 2.0 16 ------- null}
h -t 0.578 -s 1 -d 2 -p cbr -e 500 -c 1 -i 16 -a 1 -x {0.0 2.0 -1 ------- null}
+ -t 0.578 -s 0 -d 1 -p cbr -e 500 -c 1 -i 78 -a 1 -x {0.0 2.0 78 ------- null}
d -t 0.578 -s 0 -d 1 -p cbr -e 500 -c 1 -i 78 -a 1 -x {0.0 2.0 78 ------- null}
+ -t 0.579 -s 0 -d 1 -p cbr -e 500 -c 1 -i 79 -a 1 -x {0.0 2.0 79 ------- null}
d -t 0.579 -s 0 -d 1 -p cbr -e 500 -c 1 -i 79 -a 1 -x {0.0 2.0 79 ------- null}
r -t 0.58 -s 1 -d 2 -p cbr -e 500 -c 1 -i 13 -a 1 -x {0.0 2.0 13 ------- null}
- -t 0.58 -s 0 -d 1 -p cbr -e 500 -c 1 -i 20 -a 1 -x {0.0 2.0 20 ------- null}
h -t 0.58 -s 0 -d 1 -p cbr -e 500 -c 1 -i 20 -a 1 -x {0.0 2.0 -1 ------- null}
+ -t 0.58 -s 0 -d 1 -p cbr -e 500 -c 1 -i 80 -a 1 -x {0.0 2.0 80 ------- null}
+ -t 0.581 -s 0 -d 1 -p cbr -e 500 -c 1 -i 81 -a 1 -x {0.0 2.0 81 ------- null}
d -t 0.581 -s 0 -d 1 -p cbr -e 500 -c 1 -i 81 -a 1 -x {0.0 2.0 81 ------- null}
r -t 0.582 -s 0 -d 1 -p cbr -e 500 -c 1 -i 17 -a 1 -x {0.0 2.0 17 ------- null}
+ -t 0.582 -s 1 -d 2 -p cbr -e 500 -c 1 -i 17 -a 1 -x {0.0 2.0 17 ------- null}
- -t 0.582 -s 1 -d 2 -p cbr -e 500 -c 1 -i 17 -a 1 -x {0.0 2.0 17 ------- null}
h -t 0.582 -s 1 -d 2 -p cbr -e 500 -c 1 -i 17 -a 1 -x {0.0 2.0 -1 ------- null}
+ -t 0.582 -s 0 -d 1 -p cbr -e 500 -c 1 -i 82 -a 1 -x {0.0 2.0 82 ------- null}
d -t 0.582 -s 0 -d 1 -p cbr -e 500 -c 1 -i 82 -a 1 -x {0.0 2.0 82 ------- null}
+ -t 0.583 -s 0 -d 1 -p cbr -e 500 -c 1 -i 83 -a 1 -x {0.0 2.0 83 ------- null}
d -t 0.583 -s 0 -d 1 -p cbr -e 500 -c 1 -i 83 -a 1 -x {0.0 2.0 83 ------- null}
r -t 0.584 -s 1 -d 2 -p cbr -e 500 -c 1 -i 14 -a 1 -x {0.0 2.0 14 ------- null}
- -t 0.584 -s 0 -d 1 -p cbr -e 500 -c 1 -i 21 -a 1 -x {0.0 2.0 21 ------- null}
h -t 0.584 -s 0 -d 1 -p cbr -e 500 -c 1 -i 21 -a 1 -x {0.0 2.0 -1 ------- null}
+ -t 0.584 -s 0 -d 1 -p cbr -e 500 -c 1 -i 84 -a 1 -x {0.0 2.0 84 ------- null}
+ -t 0.585 -s 0 -d 1 -p cbr -e 500 -c 1 -i 85 -a 1 -x {0.0 2.0 85 ------- null}
d -t 0.585 -s 0 -d 1 -p cbr -e 500 -c 1 -i 85 -a 1 -x {0.0 2.0 85 ------- null}
r -t 0.586 -s 0 -d 1 -p cbr -e 500 -c 1 -i 18 -a 1 -x {0.0 2.0 18 ------- null}
+ -t 0.586 -s 1 -d 2 -p cbr -e 500 -c 1 -i 18 -a 1 -x {0.0 2.0 18 ------- null}
- -t 0.586 -s 1 -d 2 -p cbr -e 500 -c 1 -i 18 -a 1 -x {0.0 2.0 18 ------- null}
h -t 0.586 -s 1 -d 2 -p cbr -e 500 -c 1 -i 18 -a 1 -x {0.0 2.0 -1 ------- null}
+ -t 0.586 -s 0 -d 1 -p cbr -e 500 -c 1 -i 86 -a 1 -x {0.0 2.0 86 ------- null}
d -t 0.586 -s 0 -d 1 -p cbr -e 500 -c 1 -i 86 -a 1 -x {0.0 2.0 86 ------- null}
+ -t 0.587 -s 0 -d 1 -p cbr -e 500 -c 1 -i 87 -a 1 -x {0.0 2.0 87 ------- null}
d -t 0.587 -s 0 -d 1 -p cbr -e 500 -c 1 -i 87 -a 1 -x {0.0 2.0 87 ------- null}
r -t 0.588 -s 1 -d 2 -p cbr -e 500 -c 1 -i 15 -a 1 -x {0.0 2.0 15 ------- null}
- -t 0.588 -s 0 -d 1 -p cbr -e 500 -c 1 -i 22 -a 1 -x {0.0 2.0 22 ------- null}
h -t 0.588 -s 0 -d 1 -p cbr -e 500 -c 1 -i 22 -a 1 -x {0.0 2.0 -1 ------- null}
+ -t 0.588 -s 0 -d 1 -p cbr -e 500 -c 1 -i 88 -a 1 -x {0.0 2.0 88 ------- null}
+ -t 0.589 -s 0 -d 1 -p cbr -e 500 -c 1 -i 89 -a 1 -x {0.0 2.0 89 ------- null}
d -t 0.589 -s 0 -d 1 -p cbr -e 500 -c 1 -i 89 -a 1 -x {0.0 2.0 89 ------- null}
r -t 0.59 -s 0 -d 1 -p cbr -e 500 -c 1 -i 19 -a 1 -x {0.0 2.0 19 ------- null}
+ -t 0.59 -s 1 -d 2 -p cbr -e 500 -c 1 -i 19 -a 1 -x {0.0 2.0 19 ------- null}
- -t 0.59 -s 1 -d 2 -p cbr -e 500 -c 1 -i 19 -a 1 -x {0.0 2.0 19 ------- null}
h -t 0.59 -s 1 -d 2 -p cbr -e 500 -c 1 -i 19 -a 1 -x {0.0 2.0 -1 ------- null}
+ -t 0.59 -s 0 -d 1 -p cbr -e 500 -c 1 -i 90 -a 1 -x {0.0 2.0 90 ------- null}
d -t 0.59 -s 0 -d 1 -p cbr -e 500 -c 1 -i 90 -a 1 -x {0.0 2.0 90 ------- null}
+ -t 0.591 -s 0 -d 1 -p cbr -e 500 -c 1 -i 91 -a 1 -x {0.0 2.0 91 ------- null}
d -t 0.591 -s 0 -d 1 -p cbr -e 500 -c 1 -i 91 -a 1 -x {0.0 2.0 91 ------- null}
r -t 0.592 -s 1 -d 2 -p cbr -e 500 -c 1 -i 16 -a 1 -x {0.0 2.0 16 ------- null}
- -t 0.592 -s 0 -d 1 -p cbr -e 500 -c 1 -i 23 -a 1 -x {0.0 2.0 23 ------- null}
h -t 0.592 -s 0 -d 1 -p cbr -e 500 -c 1 -i 23 -a 1 -x {0.0 2.0 -1 ------- null}
+ -t 0.592 -s 0 -d 1 -p cbr -e 500 -c 1 -i 92 -a 1 -x {0.0 2.0 92 ------- null}
+ -t 0.593 -s 0 -d 1 -p cbr -e 500 -c 1 -i 93 -a 1 -x {0.0 2.0 93 ------- null}
d -t 0.593 -s 0 -d 1 -p cbr -e 500 -c 1 -i 93 -a 1 -x {0.0 2.0 93 ------- null}
r -t 0.594 -s 0 -d 1 -p cbr -e 500 -c 1 -i 20 -a 1 -x {0.0 2.0 20 ------- null}
+ -t 0.594 -s 1 -d 2 -p cbr -e 500 -c 1 -i 20 -a 1 -x {0.0 2.0 20 ------- null}
- -t 0.594 -s 1 -d 2 -p cbr -e 500 -c 1 -i 20 -a 1 -x {0.0 2.0 20 ------- null}
h -t 0.594 -s 1 -d 2 -p cbr -e 500 -c 1 -i 20 -a 1 -x {0.0 2.0 -1 ------- null}
+ -t 0.594 -s 0 -d 1 -p cbr -e 500 -c 1 -i 94 -a 1 -x {0.0 2.0 94 ------- null}
d -t 0.594 -s 0 -d 1 -p cbr -e 500 -c 1 -i 94 -a 1 -x {0.0 2.0 94 ------- null}
+ -t 0.595 -s 0 -d 1 -p cbr -e 500 -c 1 -i 95 -a 1 -x {0.0 2.0 95 ------- null}
d -t 0.595 -s 0 -d 1 -p cbr -e 500 -c 1 -i 95 -a 1 -x {0.0 2.0 95 ------- null}
r -t 0.596 -s 1 -d 2 -p cbr -e 500 -c 1 -i 17 -a 1 -x {0.0 2.0 17 ------- null}
- -t 0.596 -s 0 -d 1 -p cbr -e 500 -c 1 -i 24 -a 1 -x {0.0 2.0 24 ------- null}
h -t 0.596 -s 0 -d 1 -p cbr -e 500 -c 1 -i 24 -a 1 -x {0.0 2.0 -1 ------- null}
+ -t 0.596 -s 0 -d 1 -p cbr -e 500 -c 1 -i 96 -a 1 -x {0.0 2.0 96 ------- null}
+ -t 0.597 -s 0 -d 1 -p cbr -e 500 -c 1 -i 97 -a 1 -x {0.0 2.0 97 ------- null}
d -t 0.597 -s 0 -d 1 -p cbr -e 500 -c 1 -i 97 -a 1 -x {0.0 2.0 97 ------- null}
r -t 0.598 -s 0 -d 1 -p cbr -e 500 -c 1 -i 21 -a 1 -x {0.0 2.0 21 ------- null}
+ -t 0.598 -s 1 -d 2 -p cbr -e 500 -c 1 -i 21 -a 1 -x {0.0 2.0 21 ------- null}
- -t 0.598 -s 1 -d 2 -p cbr -e 500 -c 1 -i 21 -a 1 -x {0.0 2.0 21 ------- null}
h -t 0.598 -s 1 -d 2 -p cbr -e 500 -c 1 -i 21 -a 1 -x {0.0 2.0 -1 ------- null}
+ -t 0.598 -s 0 -d 1 -p cbr -e 500 -c 1 -i 98 -a 1 -x {0.0 2.0 98 ------- null}
d -t 0.598 -s 0 -d 1 -p cbr -e 500 -c 1 -i 98 -a 1 -x {0.0 2.0 98 ------- null}
+ -t 0.599 -s 0 -d 1 -p cbr -e 500 -c 1 -i 99 -a 1 -x {0.0 2.0 99 ------- null}
d -t 0.599 -s 0 -d 1 -p cbr -e 500 -c 1 -i 99 -a 1 -x {0.0 2.0 99 ------- null}
r -t 0.6 -s 1 -d 2 -p cbr -e 500 -c 1 -i 18 -a 1 -x {0.0 2.0 18 ------- null}
- -t 0.6 -s 0 -d 1 -p cbr -e 500 -c 1 -i 25 -a 1 -x {0.0 2.0 25 ------- null}
h -t 0.6 -s 0 -d 1 -p cbr -e 500 -c 1 -i 25 -a 1 -x {0.0 2.0 -1 ------- null}
+ -t 0.6 -s 0 -d 1 -p cbr -e 500 -c 1 -i 100 -a 1 -x {0.0 2.0 100 ------- null}
+ -t 0.601 -s 0 -d 1 -p cbr -e 500 -c 1 -i 101 -a 1 -x {0.0 2.0 101 ------- null}
d -t 0.601 -s 0 -d 1 -p cbr -e 500 -c 1 -i 101 -a 1 -x {0.0 2.0 101 ------- null}
r -t 0.602 -s 0 -d 1 -p cbr -e 500 -c 1 -i 22 -a 1 -x {0.0 2.0 22 ------- null}
+ -t 0.602 -s 1 -d 2 -p cbr -e 500 -c 1 -i 22 -a 1 -x {0.0 2.0 22 ------- null}
- -t 0.602 -s 1 -d 2 -p cbr -e 500 -c 1 -i 22 -a 1 -x {0.0 2.0 22 ------- null}
h -t 0.602 -s 1 -d 2 -p cbr -e 500 -c 1 -i 22 -a 1 -x {0.0 2.0 -1 ------- null}
+ -t 0.602 -s 0 -d 1 -p cbr -e 500 -c 1 -i 102 -a 1 -x {0.0 2.0 102 ------- null}
d -t 0.602 -s 0 -d 1 -p cbr -e 500 -c 1 -i 102 -a 1 -x {0.0 2.0 102 ------- null}
+ -t 0.603 -s 0 -d 1 -p cbr -e 500 -c 1 -i 103 -a 1 -x {0.0 2.0 103 ------- null}
d -t 0.603 -s 0 -d 1 -p cbr -e 500 -c 1 -i 103 -a 1 -x {0.0 2.0 103 ------- null}
r -t 0.604 -s 1 -d 2 -p cbr -e 500 -c 1 -i 19 -a 1 -x {0.0 2.0 19 ------- null}
- -t 0.604 -s 0 -d 1 -p cbr -e 500 -c 1 -i 26 -a 1 -x {0.0 2.0 26 ------- null}
h -t 0.604 -s 0 -d 1 -p cbr -e 500 -c 1 -i 26 -a 1 -x {0.0 2.0 -1 ------- null}
+ -t 0.604 -s 0 -d 1 -p cbr -e 500 -c 1 -i 104 -a 1 -x {0.0 2.0 104 ------- null}
+ -t 0.605 -s 0 -d 1 -p cbr -e 500 -c 1 -i 105 -a 1 -x {0.0 2.0 105 ------- null}
d -t 0.605 -s 0 -d 1 -p cbr -e 500 -c 1 -i 105 -a 1 -x {0.0 2.0 105 ------- null}
r -t 0.606 -s 0 -d 1 -p cbr -e 500 -c 1 -i 23 -a 1 -x {0.0 2.0 23 ------- null}
+ -t 0.606 -s 1 -d 2 -p cbr -e 500 -c 1 -i 23 -a 1 -x {0.0 2.0 23 ------- null}
- -t 0.606 -s 1 -d 2 -p cbr -e 500 -c 1 -i 23 -a 1 -x {0.0 2.0 23 ------- null}
h -t 0.606 -s 1 -d 2 -p cbr -e 500 -c 1 -i 23 -a 1 -x {0.0 2.0 -1 ------- null}
+ -t 0.606 -s 0 -d 1 -p cbr -e 500 -c 1 -i 106 -a 1 -x {0.0 2.0 106 ------- null}
d -t 0.606 -s 0 -d 1 -p cbr -e 500 -c 1 -i 106 -a 1 -x {0.0 2.0 106 ------- null}
+ -t 0.607 -s 0 -d 1 -p cbr -e 500 -c 1 -i 107 -a 1 -x {0.0 2.0 107 ------- null}
d -t 0.607 -s 0 -d 1 -p cbr -e 500 -c 1 -i 107 -a 1 -x {0.0 2.0 107 ------- null}
r -t 0.608 -s 1 -d 2 -p cbr -e 500 -c 1 -i 20 -a 1 -x {0.0 2.0 20 ------- null}
- -t 0.608 -s 0 -d 1 -p cbr -e 500 -c 1 -i 27 -a 1 -x {0.0 2.0 27 ------- null}
h -t 0.608 -s 0 -d 1 -p cbr -e 500 -c 1 -i 27 -a 1 -x {0.0 2.0 -1 ------- null}
+ -t 0.608 -s 0 -d 1 -p cbr -e 500 -c 1 -i 108 -a 1 -x {0.0 2.0 108 ------- null}
+ -t 0.609 -s 0 -d 1 -p cbr -e 500 -c 1 -i 109 -a 1 -x {0.0 2.0 109 ------- null}
d -t 0.609 -s 0 -d 1 -p cbr -e 500 -c 1 -i 109 -a 1 -x {0.0 2.0 109 ------- null}
r -t 0.61 -s 0 -d 1 -p cbr -e 500 -c 1 -i 24 -a 1 -x {0.0 2.0 24 ------- null}
+ -t 0.61 -s 1 -d 2 -p cbr -e 500 -c 1 -i 24 -a 1 -x {0.0 2.0 24 ------- null}
- -t 0.61 -s 1 -d 2 -p cbr -e 500 -c 1 -i 24 -a 1 -x {0.0 2.0 24 ------- null}
h -t 0.61 -s 1 -d 2 -p cbr -e 500 -c 1 -i 24 -a 1 -x {0.0 2.0 -1 ------- null}
+ -t 0.61 -s 0 -d 1 -p cbr -e 500 -c 1 -i 110 -a 1 -x {0.0 2.0 110 ------- null}
d -t 0.61 -s 0 -d 1 -p cbr -e 500 -c 1 -i 110 -a 1 -x {0.0 2.0 110 ------- null}
+ -t 0.611 -s 0 -d 1 -p cbr -e 500 -c 1 -i 111 -a 1 -x {0.0 2.0 111 ------- null}
d -t 0.611 -s 0 -d 1 -p cbr -e 500 -c 1 -i 111 -a 1 -x {0.0 2.0 111 ------- null}
r -t 0.612 -s 1 -d 2 -p cbr -e 500 -c 1 -i 21 -a 1 -x {0.0 2.0 21 ------- null}
- -t 0.612 -s 0 -d 1 -p cbr -e 500 -c 1 -i 28 -a 1 -x {0.0 2.0 28 ------- null}
h -t 0.612 -s 0 -d 1 -p cbr -e 500 -c 1 -i 28 -a 1 -x {0.0 2.0 -1 ------- null}
+ -t 0.612 -s 0 -d 1 -p cbr -e 500 -c 1 -i 112 -a 1 -x {0.0 2.0 112 ------- null}
+ -t 0.613 -s 0 -d 1 -p cbr -e 500 -c 1 -i 113 -a 1 -x {0.0 2.0 113 ------- null}
d -t 0.613 -s 0 -d 1 -p cbr -e 500 -c 1 -i 113 -a 1 -x {0.0 2.0 113 ------- null}
r -t 0.614 -s 0 -d 1 -p cbr -e 500 -c 1 -i 25 -a 1 -x {0.0 2.0 25 ------- null}
+ -t 0.614 -s 1 -d 2 -p cbr -e 500 -c 1 -i 25 -a 1 -x {0.0 2.0 25 ------- null}
- -t 0.614 -s 1 -d 2 -p cbr -e 500 -c 1 -i 25 -a 1 -x {0.0 2.0 25 ------- null}
h -t 0.614 -s 1 -d 2 -p cbr -e 500 -c 1 -i 25 -a 1 -x {0.0 2.0 -1 ------- null}
+ -t 0.614 -s 0 -d 1 -p cbr -e 500 -c 1 -i 114 -a 1 -x {0.0 2.0 114 ------- null}
d -t 0.614 -s 0 -d 1 -p cbr -e 500 -c 1 -i 114 -a 1 -x {0.0 2.0 114 ------- null}
+ -t 0.615 -s 0 -d 1 -p cbr -e 500 -c 1 -i 115 -a 1 -x {0.0 2.0 115 ------- null}
d -t 0.615 -s 0 -d 1 -p cbr -e 500 -c 1 -i 115 -a 1 -x {0.0 2.0 115 ------- null}
r -t 0.616 -s 1 -d 2 -p cbr -e 500 -c 1 -i 22 -a 1 -x {0.0 2.0 22 ------- null}
- -t 0.616 -s 0 -d 1 -p cbr -e 500 -c 1 -i 29 -a 1 -x {0.0 2.0 29 ------- null}
h -t 0.616 -s 0 -d 1 -p cbr -e 500 -c 1 -i 29 -a 1 -x {0.0 2.0 -1 ------- null}
+ -t 0.616 -s 0 -d 1 -p cbr -e 500 -c 1 -i 116 -a 1 -x {0.0 2.0 116 ------- null}
+ -t 0.617 -s 0 -d 1 -p cbr -e 500 -c 1 -i 117 -a 1 -x {0.0 2.0 117 ------- null}
d -t 0.617 -s 0 -d 1 -p cbr -e 500 -c 1 -i 117 -a 1 -x {0.0 2.0 117 ------- null}
r -t 0.618 -s 0 -d 1 -p cbr -e 500 -c 1 -i 26 -a 1 -x {0.0 2.0 26 ------- null}
+ -t 0.618 -s 1 -d 2 -p cbr -e 500 -c 1 -i 26 -a 1 -x {0.0 2.0 26 ------- null}
- -t 0.618 -s 1 -d 2 -p cbr -e 500 -c 1 -i 26 -a 1 -x {0.0 2.0 26 ------- null}
h -t 0.618 -s 1 -d 2 -p cbr -e 500 -c 1 -i 26 -a 1 -x {0.0 2.0 -1 ------- null}
+ -t 0.618 -s 0 -d 1 -p cbr -e 500 -c 1 -i 118 -a 1 -x {0.0 2.0 118 ------- null}
d -t 0.618 -s 0 -d 1 -p cbr -e 500 -c 1 -i 118 -a 1 -x {0.0 2.0 118 ------- null}
+ -t 0.619 -s 0 -d 1 -p cbr -e 500 -c 1 -i 119 -a 1 -x {0.0 2.0 119 ------- null}
d -t 0.619 -s 0 -d 1 -p cbr -e 500 -c 1 -i 119 -a 1 -x {0.0 2.0 119 ------- null}
r -t 0.62 -s 1 -d 2 -p cbr -e 500 -c 1 -i 23 -a 1 -x {0.0 2.0 23 ------- null}
- -t 0.62 -s 0 -d 1 -p cbr -e 500 -c 1 -i 30 -a 1 -x {0.0 2.0 30 ------- null}
h -t 0.62 -s 0 -d 1 -p cbr -e 500 -c 1 -i 30 -a 1 -x {0.0 2.0 -1 ------- null}
+ -t 0.62 -s 0 -d 1 -p cbr -e 500 -c 1 -i 120 -a 1 -x {0.0 2.0 120 ------- null}
+ -t 0.621 -s 0 -d 1 -p cbr -e 500 -c 1 -i 121 -a 1 -x {0.0 2.0 121 ------- null}
d -t 0.621 -s 0 -d 1 -p cbr -e 500 -c 1 -i 121 -a 1 -x {0.0 2.0 121 ------- null}
r -t 0.622 -s 0 -d 1 -p cbr -e 500 -c 1 -i 27 -a 1 -x {0.0 2.0 27 ------- null}
+ -t 0.622 -s 1 -d 2 -p cbr -e 500 -c 1 -i 27 -a 1 -x {0.0 2.0 27 ------- null}
- -t 0.622 -s 1 -d 2 -p cbr -e 500 -c 1 -i 27 -a 1 -x {0.0 2.0 27 ------- null}
h -t 0.622 -s 1 -d 2 -p cbr -e 500 -c 1 -i 27 -a 1 -x {0.0 2.0 -1 ------- null}
+ -t 0.622 -s 0 -d 1 -p cbr -e 500 -c 1 -i 122 -a 1 -x {0.0 2.0 122 ------- null}
d -t 0.622 -s 0 -d 1 -p cbr -e 500 -c 1 -i 122 -a 1 -x {0.0 2.0 122 ------- null}
+ -t 0.623 -s 0 -d 1 -p cbr -e 500 -c 1 -i 123 -a 1 -x {0.0 2.0 123 ------- null}
d -t 0.623 -s 0 -d 1 -p cbr -e 500 -c 1 -i 123 -a 1 -x {0.0 2.0 123 ------- null}
r -t 0.624 -s 1 -d 2 -p cbr -e 500 -c 1 -i 24 -a 1 -x {0.0 2.0 24 ------- null}
- -t 0.624 -s 0 -d 1 -p cbr -e 500 -c 1 -i 31 -a 1 -x {0.0 2.0 31 ------- null}
h -t 0.624 -s 0 -d 1 -p cbr -e 500 -c 1 -i 31 -a 1 -x {0.0 2.0 -1 ------- null}