+ 0.5 0 1 cbr 500 ------- 1 0.0 2.0 0 0
- 0.5 0 1 cbr 500 ------- 1 0.0 2.0 0 0
+ 0.501 0 1 cbr 500 ------- 1 0.0 2.0 1 1
+ 0.502 0 1 cbr 500 ------- 1 0.0 2.0 2 2
+ 0.503 0 1 cbr 500 ------- 1 0.0 2.0 3 3
- 0.504 0 1 cbr 500 ------- 1 0.0 2.0 1 1
+ 0.504 0 1 cbr 500 ------- 1 0.0 2.0 4 4
+ 0.505 0 1 cbr 500 ------- 1 0.0 2.0 5 5
+ 0.506 0 1 cbr 500 ------- 1 0.0 2.0 6 6
+ 0.507 0 1 cbr 500 ------- 1 0.0 2.0 7 7
- 0.508 0 1 cbr 500 ------- 1 0.0 2.0 2 2
+ 0.508 0 1 cbr 500 ------- 1 0.0 2.0 8 8
+ 0.509 0 1 cbr 500 ------- 1 0.0 2.0 9 9
+ 0.51 0 1 cbr 500 ------- 1 0.0 2.0 10 10
+ 0.511 0 1 cbr 500 ------- 1 0.0 2.0 11 11
- 0.512 0 1 cbr 500 ------- 1 0.0 2.0 3 3
+ 0.512 0 1 cbr 500 ------- 1 0.0 2.0 12 12
+ 0.513 0 1 cbr 500 ------- 1 0.0 2.0 13 13
r 0.514 0 1 cbr 500 ------- 1 0.0 2.0 0 0
+ 0.514 1 2 cbr 500 ------- 1 0.0 2.0 0 0
- 0.514 1 2 cbr 500 ------- 1 0.0 2.0 0 0
+ 0.514 0 1 cbr 500 ------- 1 0.0 2.0 14 14
+ 0.515 0 1 cbr 500 ------- 1 0.0 2.0 15 15
- 0.516 0 1 cbr 500 ------- 1 0.0 2.0 4 4
+ 0.516 0 1 cbr 500 ------- 1 0.0 2.0 16 16
+ 0.517 0 1 cbr 500 ------- 1 0.0 2.0 17 17
r 0.518 0 1 cbr 500 ------- 1 0.0 2.0 1 1
+ 0.518 1 2 cbr 500 ------- 1 0.0 2.0 1 1
- 0.518 1 2 cbr 500 ------- 1 0.0 2.0 1 1
+ 0.518 0 1 cbr 500 ------- 1 0.0 2.0 18 18
+ 0.519 0 1 cbr 500 ------- 1 0.0 2.0 19 19
- 0.52 0 1 cbr 500 ------- 1 0.0 2.0 5 5
+ 0.52 0 1 cbr 500 ------- 1 0.0 2.0 20 20
+ 0.521 0 1 cbr 500 ------- 1 0.0 2.0 21 21
r 0.522 0 1 cbr 500 ------- 1 0.0 2.0 2 2
+ 0.522 1 2 cbr 500 ------- 1 0.0 2.0 2 2
- 0.522 1 2 cbr 500 ------- 1 0.0 2.0 2 2
+ 0.522 0 1 cbr 500 ------- 1 0.0 2.0 22 22
+ 0.523 0 1 cbr 500 ------- 1 0.0 2.0 23 23
- 0.524 0 1 cbr 500 ------- 1 0.0 2.0 6 6
+ 0.524 0 1 cbr 500 ------- 1 0.0 2.0 24 24
+ 0.525 0 1 cbr 500 ------- 1 0.0 2.0 25 25
r 0.526 0 1 cbr 500 ------- 1 0.0 2.0 3 3
+ 0.526 1 2 cbr 500 ------- 1 0.0 2.0 3 3
- 0.526 1 2 cbr 500 ------- 1 0.0 2.0 3 3
+ 0.526 0 1 cbr 500 ------- 1 0.0 2.0 26 26
+ 0.527 0 1 cbr 500 ------- 1 0.0 2.0 27 27
r 0.528 1 2 cbr 500 ------- 1 0.0 2.0 0 0
- 0.528 0 1 cbr 500 ------- 1 0.0 2.0 7 7
+ 0.528 0 1 cbr 500 ------- 1 0.0 2.0 28 28
+ 0.529 0 1 cbr 500 ------- 1 0.0 2.0 29 29
r 0.53 0 1 cbr 500 ------- 1 0.0 2.0 4 4
+ 0.53 1 2 cbr 500 ------- 1 0.0 2.0 4 4
- 0.53 1 2 cbr 500 ------- 1 0.0 2.0 4 4
+ 0.53 0 1 cbr 500 ------- 1 0.0 2.0 30 30
+ 0.531 0 1 cbr 500 ------- 1 0.0 2.0 31 31
r 0.532 1 2 cbr 500 ------- 1 0.0 2.0 1 1
- 0.532 0 1 cbr 500 ------- 1 0.0 2.0 8 8
+ 0.532 0 1 cbr 500 ------- 1 0.0 2.0 32 32
+ 0.533 0 1 cbr 500 ------- 1 0.0 2.0 33 33
r 0.534 0 1 cbr 500 ------- 1 0.0 2.0 5 5
+ 0.534 1 2 cbr 500 ------- 1 0.0 2.0 5 5
- 0.534 1 2 cbr 500 ------- 1 0.0 2.0 5 5
+ 0.534 0 1 cbr 500 ------- 1 0.0 2.0 34 34
+ 0.535 0 1 cbr 500 ------- 1 0.0 2.0 35 35
r 0.536 1 2 cbr 500 ------- 1 0.0 2.0 2 2
- 0.536 0 1 cbr 500 ------- 1 0.0 2.0 9 9
+ 0.536 0 1 cbr 500 ------- 1 0.0 2.0 36 36
+ 0.537 0 1 cbr 500 ------- 1 0.0 2.0 37 37
r 0.538 0 1 cbr 500 ------- 1 0.0 2.0 6 6
+ 0.538 1 2 cbr 500 ------- 1 0.0 2.0 6 6
- 0.538 1 2 cbr 500 ------- 1 0.0 2.0 6 6
+ 0.538 0 1 cbr 500 ------- 1 0.0 2.0 38 38
+ 0.539 0 1 cbr 500 ------- 1 0.0 2.0 39 39
r 0.54 1 2 cbr 500 ------- 1 0.0 2.0 3 3
- 0.54 0 1 cbr 500 ------- 1 0.0 2.0 10 10
+ 0.54 0 1 cbr 500 ------- 1 0.0 2.0 40 40
+ 0.541 0 1 cbr 500 ------- 1 0.0 2.0 41 41
r 0.542 0 1 cbr 500 ------- 1 0.0 2.0 7 7
+ 0.542 1 2 cbr 500 ------- 1 0.0 2.0 7 7
- 0.542 1 2 cbr 500 ------- 1 0.0 2.0 7 7
+ 0.542 0 1 cbr 500 ------- 1 0.0 2.0 42 42
+ 0.543 0 1 cbr 500 ------- 1 0.0 2.0 43 43
r 0.544 1 2 cbr 500 ------- 1 0.0 2.0 4 4
- 0.544 0 1 cbr 500 ------- 1 0.0 2.0 11 11
+ 0.544 0 1 cbr 500 ------- 1 0.0 2.0 44 44
+ 0.545 0 1 cbr 500 ------- 1 0.0 2.0 45 45
r 0.546 0 1 cbr 500 ------- 1 0.0 2.0 8 8
+ 0.546 1 2 cbr 500 ------- 1 0.0 2.0 8 8
- 0.546 1 2 cbr 500 ------- 1 0.0 2.0 8 8
+ 0.546 0 1 cbr 500 ------- 1 0.0 2.0 46 46
+ 0.547 0 1 cbr 500 ------- 1 0.0 2.0 47 47
r 0.548 1 2 cbr 500 ------- 1 0.0 2.0 5 5
- 0.548 0 1 cbr 500 ------- 1 0.0 2.0 12 12
+ 0.548 0 1 cbr 500 ------- 1 0.0 2.0 48 48
+ 0.549 0 1 cbr 500 ------- 1 0.0 2.0 49 49
r 0.55 0 1 cbr 500 ------- 1 0.0 2.0 9 9
+ 0.55 1 2 cbr 500 ------- 1 0.0 2.0 9 9
- 0.55 1 2 cbr 500 ------- 1 0.0 2.0 9 9
+ 0.55 0 1 cbr 500 ------- 1 0.0 2.0 50 50
+ 0.551 0 1 cbr 500 ------- 1 0.0 2.0 51 51
r 0.552 1 2 cbr 500 ------- 1 0.0 2.0 6 6
- 0.552 0 1 cbr 500 ------- 1 0.0 2.0 13 13
+ 0.552 0 1 cbr 500 ------- 1 0.0 2.0 52 52
+ 0.553 0 1 cbr 500 ------- 1 0.0 2.0 53 53
r 0.554 0 1 cbr 500 ------- 1 0.0 2.0 10 10
+ 0.554 1 2 cbr 500 ------- 1 0.0 2.0 10 10
- 0.554 1 2 cbr 500 ------- 1 0.0 2.0 10 10
+ 0.554 0 1 cbr 500 ------- 1 0.0 2.0 54 54
+ 0.555 0 1 cbr 500 ------- 1 0.0 2.0 55 55
r 0.556 1 2 cbr 500 ------- 1 0.0 2.0 7 7
- 0.556 0 1 cbr 500 ------- 1 0.0 2.0 14 14
+ 0.556 0 1 cbr 500 ------- 1 0.0 2.0 56 56
+ 0.557 0 1 cbr 500 ------- 1 0.0 2.0 57 57
r 0.558 0 1 cbr 500 ------- 1 0.0 2.0 11 11
+ 0.558 1 2 cbr 500 ------- 1 0.0 2.0 11 11
- 0.558 1 2 cbr 500 ------- 1 0.0 2.0 11 11
+ 0.558 0 1 cbr 500 ------- 1 0.0 2.0 58 58
+ 0.559 0 1 cbr 500 ------- 1 0.0 2.0 59 59
r 0.56 1 2 cbr 500 ------- 1 0.0 2.0 8 8
- 0.56 0 1 cbr 500 ------- 1 0.0 2.0 15 15
+ 0.56 0 1 cbr 500 ------- 1 0.0 2.0 60 60
+ 0.561 0 1 cbr 500 ------- 1 0.0 2.0 61 61
r 0.562 0 1 cbr 500 ------- 1 0.0 2.0 12 12
+ 0.562 1 2 cbr 500 ------- 1 0.0 2.0 12 12
- 0.562 1 2 cbr 500 ------- 1 0.0 2.0 12 12
+ 0.562 0 1 cbr 500 ------- 1 0.0 2.0 62 62
+ 0.563 0 1 cbr 500 ------- 1 0.0 2.0 63 63
r 0.564 1 2 cbr 500 ------- 1 0.0 2.0 9 9
- 0.564 0 1 cbr 500 ------- 1 0.0 2.0 16 16
+ 0.564 0 1 cbr 500 ------- 1 0.0 2.0 64 64
+ 0.565 0 1 cbr 500 ------- 1 0.0 2.0 65 65
r 0.566 0 1 cbr 500 ------- 1 0.0 2.0 13 13
+ 0.566 1 2 cbr 500 ------- 1 0.0 2.0 13 13
- 0.566 1 2 cbr 500 ------- 1 0.0 2.0 13 13
+ 0.566 0 1 cbr 500 ------- 1 0.0 2.0 66 66
d 0.566 0 1 cbr 500 ------- 1 0.0 2.0 66 66
+ 0.567 0 1 cbr 500 ------- 1 0.0 2.0 67 67
d 0.567 0 1 cbr 500 ------- 1 0.0 2.0 67 67
r 0.568 1 2 cbr 500 ------- 1 0.0 2.0 10 10
- 0.568 0 1 cbr 500 ------- 1 0.0 2.0 17 17
+ 0.568 0 1 cbr 500 ------- 1 0.0 2.0 68 68
+ 0.569 0 1 cbr 500 ------- 1 0.0 2.0 69 69
d 0.569 0 1 cbr 500 ------- 1 0.0 2.0 69 69
r 0.57 0 1 cbr 500 ------- 1 0.0 2.0 14 14
+ 0.57 1 2 cbr 500 ------- 1 0.0 2.0 14 14
- 0.57 1 2 cbr 500 ------- 1 0.0 2.0 14 14
+ 0.57 0 1 cbr 500 ------- 1 0.0 2.0 70 70
d 0.57 0 1 cbr 500 ------- 1 0.0 2.0 70 70
+ 0.571 0 1 cbr 500 ------- 1 0.0 2.0 71 71
d 0.571 0 1 cbr 500 ------- 1 0.0 2.0 71 71
r 0.572 1 2 cbr 500 ------- 1 0.0 2.0 11 11
- 0.572 0 1 cbr 500 ------- 1 0.0 2.0 18 18
+ 0.572 0 1 cbr 500 ------- 1 0.0 2.0 72 72
+ 0.573 0 1 cbr 500 ------- 1 0.0 2.0 73 73
d 0.573 0 1 cbr 500 ------- 1 0.0 2.0 73 73
r 0.574 0 1 cbr 500 ------- 1 0.0 2.0 15 15
+ 0.574 1 2 cbr 500 ------- 1 0.0 2.0 15 15
- 0.574 1 2 cbr 500 ------- 1 0.0 2.0 15 15
+ 0.574 0 1 cbr 500 ------- 1 0.0 2.0 74 74
d 0.574 0 1 cbr 500 ------- 1 0.0 2.0 74 74
+ 0.575 0 1 cbr 500 ------- 1 0.0 2.0 75 75
d 0.575 0 1 cbr 500 ------- 1 0.0 2.0 75 75
r 0.576 1 2 cbr 500 ------- 1 0.0 2.0 12 12
- 0.576 0 1 cbr 500 ------- 1 0.0 2.0 19 19
+ 0.576 0 1 cbr 500 ------- 1 0.0 2.0 76 76
+ 0.577 0 1 cbr 500 ------- 1 0.0 2.0 77 77
d 0.577 0 1 cbr 500 ------- 1 0.0 2.0 77 77
r 0.578 0 1 cbr 500 ------- 1 0.0 2.0 16 16
+ 0.578 1 2 cbr 500 ------- 1 0.0 2.0 16 16
- 0.578 1 2 cbr 500 ------- 1 0.0 2.0 16 16
+ 0.578 0 1 cbr 500 ------- 1 0.0 2.0 78 78
d 0.578 0 1 cbr 500 ------- 1 0.0 2.0 78 78
+ 0.579 0 1 cbr 500 ------- 1 0.0 2.0 79 79
d 0.579 0 1 cbr 500 ------- 1 0.0 2.0 79 79
r 0.58 1 2 cbr 500 ------- 1 0.0 2.0 13 13
- 0.58 0 1 cbr 500 ------- 1 0.0 2.0 20 20
+ 0.58 0 1 cbr 500 ------- 1 0.0 2.0 80 80
+ 0.581 0 1 cbr 500 ------- 1 0.0 2.0 81 81
d 0.581 0 1 cbr 500 ------- 1 0.0 2.0 81 81
r 0.582 0 1 cbr 500 ------- 1 0.0 2.0 17 17
+ 0.582 1 2 cbr 500 ------- 1 0.0 2.0 17 17
- 0.582 1 2 cbr 500 ------- 1 0.0 2.0 17 17
+ 0.582 0 1 cbr 500 ------- 1 0.0 2.0 82 82
d 0.582 0 1 cbr 500 ------- 1 0.0 2.0 82 82
+ 0.583 0 1 cbr 500 ------- 1 0.0 2.0 83 83
d 0.583 0 1 cbr 500 ------- 1 0.0 2.0 83 83
r 0.584 1 2 cbr 500 ------- 1 0.0 2.0 14 14
- 0.584 0 1 cbr 500 ------- 1 0.0 2.0 21 21
+ 0.584 0 1 cbr 500 ------- 1 0.0 2.0 84 84
+ 0.585 0 1 cbr 500 ------- 1 0.0 2.0 85 85
d 0.585 0 1 cbr 500 ------- 1 0.0 2.0 85 85
r 0.586 0 1 cbr 500 ------- 1 0.0 2.0 18 18
+ 0.586 1 2 cbr 500 ------- 1 0.0 2.0 18 18
- 0.586 1 2 cbr 500 ------- 1 0.0 2.0 18 18
+ 0.586 0 1 cbr 500 ------- 1 0.0 2.0 86 86
d 0.586 0 1 cbr 500 ------- 1 0.0 2.0 86 86
+ 0.587 0 1 cbr 500 ------- 1 0.0 2.0 87 87
d 0.587 0 1 cbr 500 ------- 1 0.0 2.0 87 87
r 0.588 1 2 cbr 500 ------- 1 0.0 2.0 15 15
- 0.588 0 1 cbr 500 ------- 1 0.0 2.0 22 22
+ 0.588 0 1 cbr 500 ------- 1 0.0 2.0 88 88
+ 0.589 0 1 cbr 500 ------- 1 0.0 2.0 89 89
d 0.589 0 1 cbr 500 ------- 1 0.0 2.0 89 89
r 0.59 0 1 cbr 500 ------- 1 0.0 2.0 19 19
+ 0.59 1 2 cbr 500 ------- 1 0.0 2.0 19 19
- 0.59 1 2 cbr 500 ------- 1 0.0 2.0 19 19
+ 0.59 0 1 cbr 500 ------- 1 0.0 2.0 90 90
d 0.59 0 1 cbr 500 ------- 1 0.0 2.0 90 90
+ 0.591 0 1 cbr 500 ------- 1 0.0 2.0 91 91
d 0.591 0 1 cbr 500 ------- 1 0.0 2.0 91 91
r 0.592 1 2 cbr 500 ------- 1 0.0 2.0 16 16
- 0.592 0 1 cbr 500 ------- 1 0.0 2.0 23 23
+ 0.592 0 1 cbr 500 ------- 1 0.0 2.0 92 92
+ 0.593 0 1 cbr 500 ------- 1 0.0 2.0 93 93
d 0.593 0 1 cbr 500 ------- 1 0.0 2.0 93 93
r 0.594 0 1 cbr 500 ------- 1 0.0 2.0 20 20
+ 0.594 1 2 cbr 500 ------- 1 0.0 2.0 20 20
- 0.594 1 2 cbr 500 ------- 1 0.0 2.0 20 20
+ 0.594 0 1 cbr 500 ------- 1 0.0 2.0 94 94
d 0.594 0 1 cbr 500 ------- 1 0.0 2.0 94 94
+ 0.595 0 1 cbr 500 ------- 1 0.0 2.0 95 95
d 0.595 0 1 cbr 500 ------- 1 0.0 2.0 95 95
r 0.596 1 2 cbr 500 ------- 1 0.0 2.0 17 17
- 0.596 0 1 cbr 500 ------- 1 0.0 2.0 24 24
+ 0.596 0 1 cbr 500 ------- 1 0.0 2.0 96 96
+ 0.597 0 1 cbr 500 ------- 1 0.0 2.0 97 97
d 0.597 0 1 cbr 500 ------- 1 0.0 2.0 97 97
r 0.598 0 1 cbr 500 ------- 1 0.0 2.0 21 21
+ 0.598 1 2 cbr 500 ------- 1 0.0 2.0 21 21
- 0.598 1 2 cbr 500 ------- 1 0.0 2.0 21 21
+ 0.598 0 1 cbr 500 ------- 1 0.0 2.0 98 98
d 0.598 0 1 cbr 500 ------- 1 0.0 2.0 98 98
+ 0.599 0 1 cbr 500 ------- 1 0.0 2.0 99 99
d 0.599 0 1 cbr 500 ------- 1 0.0 2.0 99 99
r 0.6 1 2 cbr 500 ------- 1 0.0 2.0 18 18
- 0.6 0 1 cbr 500 ------- 1 0.0 2.0 25 25
+ 0.6 0 1 cbr 500 ------- 1 0.0 2.0 100 100
+ 0.601 0 1 cbr 500 ------- 1 0.0 2.0 101 101
d 0.601 0 1 cbr 500 ------- 1 0.0 2.0 101 101
r 0.602 0 1 cbr 500 ------- 1 0.0 2.0 22 22
+ 0.602 1 2 cbr 500 ------- 1 0.0 2.0 22 22
- 0.602 1 2 cbr 500 ------- 1 0.0 2.0 22 22
+ 0.602 0 1 cbr 500 ------- 1 0.0 2.0 102 102
d 0.602 0 1 cbr 500 ------- 1 0.0 2.0 102 102
+ 0.603 0 1 cbr 500 ------- 1 0.0 2.0 103 103
d 0.603 0 1 cbr 500 ------- 1 0.0 2.0 103 103
r 0.604 1 2 cbr 500 ------- 1 0.0 2.0 19 19
- 0.604 0 1 cbr 500 ------- 1 0.0 2.0 26 26
+ 0.604 0 1 cbr 500 ------- 1 0.0 2.0 104 104
+ 0.605 0 1 cbr 500 ------- 1 0.0 2.0 105 105
d 0.605 0 1 cbr 500 ------- 1 0.0 2.0 105 105
r 0.606 0 1 cbr 500 ------- 1 0.0 2.0 23 23
+ 0.606 1 2 cbr 500 ------- 1 0.0 2.0 23 23
- 0.606 1 2 cbr 500 ------- 1 0.0 2.0 23 23
+ 0.606 0 1 cbr 500 ------- 1 0.0 2.0 106 106
d 0.606 0 1 cbr 500 ------- 1 0.0 2.0 106 106
+ 0.607 0 1 cbr 500 ------- 1 0.0 2.0 107 107
d 0.607 0 1 cbr 500 ------- 1 0.0 2.0 107 107
r 0.608 1 2 cbr 500 ------- 1 0.0 2.0 20 20
- 0.608 0 1 cbr 500 ------- 1 0.0 2.0 27 27
+ 0.608 0 1 cbr 500 ------- 1 0.0 2.0 108 108
+ 0.609 0 1 cbr 500 ------- 1 0.0 2.0 109 109
d 0.609 0 1 cbr 500 ------- 1 0.0 2.0 109 109
r 0.61 0 1 cbr 500 ------- 1 0.0 2.0 24 24
+ 0.61 1 2 cbr 500 ------- 1 0.0 2.0 24 24
- 0.61 1 2 cbr 500 ------- 1 0.0 2.0 24 24
+ 0.61 0 1 cbr 500 ------- 1 0.0 2.0 110 110
d 0.61 0 1 cbr 500 ------- 1 0.0 2.0 110 110
+ 0.611 0 1 cbr 500 ------- 1 0.0 2.0 111 111
d 0.611 0 1 cbr 500 ------- 1 0.0 2.0 111 111
r 0.612 1 2 cbr 500 ------- 1 0.0 2.0 21 21
- 0.612 0 1 cbr 500 ------- 1 0.0 2.0 28 28
+ 0.612 0 1 cbr 500 ------- 1 0.0 2.0 112 112
+ 0.613 0 1 cbr 500 ------- 1 0.0 2.0 113 113
d 0.613 0 1 cbr 500 ------- 1 0.0 2.0 113 113
r 0.614 0 1 cbr 500 ------- 1 0.0 2.0 25 25
+ 0.614 1 2 cbr 500 ------- 1 0.0 2.0 25 25
- 0.614 1 2 cbr 500 ------- 1 0.0 2.0 25 25
+ 0.614 0 1 cbr 500 ------- 1 0.0 2.0 114 114
d 0.614 0 1 cbr 500 ------- 1 0.0 2.0 114 114
+ 0.615 0 1 cbr 500 ------- 1 0.0 2.0 115 115
d 0.615 0 1 cbr 500 ------- 1 0.0 2.0 115 115
r 0.616 1 2 cbr 500 ------- 1 0.0 2.0 22 22
- 0.616 0 1 cbr 500 ------- 1 0.0 2.0 29 29
+ 0.616 0 1 cbr 500 ------- 1 0.0 2.0 116 116
+ 0.617 0 1 cbr 500 ------- 1 0.0 2.0 117 117
d 0.617 0 1 cbr 500 ------- 1 0.0 2.0 117 117
r 0.618 0 1 cbr 500 ------- 1 0.0 2.0 26 26
+ 0.618 1 2 cbr 500 ------- 1 0.0 2.0 26 26
- 0.618 1 2 cbr 500 ------- 1 0.0 2.0 26 26
+ 0.618 0 1 cbr 500 ------- 1 0.0 2.0 118 118
d 0.618 0 1 cbr 500 ------- 1 0.0 2.0 118 118
+ 0.619 0 1 cbr 500 ------- 1 0.0 2.0 119 119
d 0.619 0 1 cbr 500 ------- 1 0.0 2.0 119 119
r 0.62 1 2 cbr 500 ------- 1 0.0 2.0 23 23
- 0.62 0 1 cbr 500 ------- 1 0.0 2.0 30 30
+ 0.62 0 1 cbr 500 ------- 1 0.0 2.0 120 120
+ 0.621 0 1 cbr 500 ------- 1 0.0 2.0 121 121
d 0.621 0 1 cbr 500 ------- 1 0.0 2.0 121 121
r 0.622 0 1 cbr 500 ------- 1 0.0 2.0 27 27
+ 0.622 1 2 cbr 500 ------- 1 0.0 2.0 27 27
- 0.622 1 2 cbr 500 ------- 1 0.0 2.0 27 27
+ 0.622 0 1 cbr 500 ------- 1 0.0 2.0 122 122
d 0.622 0 1 cbr 500 ------- 1 0.0 2.0 122 122
+ 0.623 0 1 cbr 500 ------- 1 0.0 2.0 123 123
d 0.623 0 1 cbr 500 ------- 1 0.0 2.0 123 123
r 0.624 1 2 cbr 500 ------- 1 0.0 2.0 24 24
- 0.624 0 1 cbr 500 ------- 1 0.0 2.0 31 31
+ 0.624 0 1 cbr 500 ------- 1 0.0 2.0 124 124
+ 0.625 0 1 cbr 500 ------- 1 0.0 2.0 125 125
d 0.625 0 1 cbr 500 ------- 1 0.0 2.0 125 125
r 0.626 0 1 cbr 500 ------- 1 0.0 2.0 28 28
+ 0.626 1 2 cbr 500 ------- 1 0.0 2.0 28 28
- 0.626 1 2 cbr 500 ------- 1 0.0 2.0 28 28
+ 0.626 0 1 cbr 500 ------- 1 0.0 2.0 126 126
d 0.626 0 1 cbr 500 ------- 1 0.0 2.0 126 126
+ 0.627 0 1 cbr 500 ------- 1 0.0 2.0 127 127
d 0.627 0 1 cbr 500 ------- 1 0.0 2.0 127 127
r 0.628 1 2 cbr 500 ------- 1 0.0 2.0 25 25
- 0.628 0 1 cbr 500 ------- 1 0.0 2.0 32 32
+ 0.628 0 1 cbr 500 ------- 1 0.0 2.0 128 128
+ 0.629 0 1 cbr 500 ------- 1 0.0 2.0 129 129
d 0.629 0 1 cbr 500 ------- 1 0.0 2.0 129 129
r 0.63 0 1 cbr 500 ------- 1 0.0 2.0 29 29
+ 0.63 1 2 cbr 500 ------- 1 0.0 2.0 29 29
- 0.63 1 2 cbr 500 ------- 1 0.0 2.0 29 29
+ 0.63 0 1 cbr 500 ------- 1 0.0 2.0 130 130
d 0.63 0 1 cbr 500 ------- 1 0.0 2.0 130 130
+ 0.631 0 1 cbr 500 ------- 1 0.0 2.0 131 131
d 0.631 0 1 cbr 500 ------- 1 0.0 2.0 131 131
r 0.632 1 2 cbr 500 ------- 1 0.0 2.0 26 26
- 0.632 0 1 cbr 500 ------- 1 0.0 2.0 33 33
+ 0.632 0 1 cbr 500 ------- 1 0.0 2.0 132 132
+ 0.633 0 1 cbr 500 ------- 1 0.0 2.0 133 133
d 0.633 0 1 cbr 500 ------- 1 0.0 2.0 133 133
r 0.634 0 1 cbr 500 ------- 1 0.0 2.0 30 30
+ 0.634 1 2 cbr 500 ------- 1 0.0 2.0 30 30
- 0.634 1 2 cbr 500 ------- 1 0.0 2.0 30 30
+ 0.634 0 1 cbr 500 ------- 1 0.0 2.0 134 134
d 0.634 0 1 cbr 500 ------- 1 0.0 2.0 134 134
+ 0.635 0 1 cbr 500 ------- 1 0.0 2.0 135 135
d 0.635 0 1 cbr 500 ------- 1 0.0 2.0 135 135
r 0.636 1 2 cbr 500 ------- 1 0.0 2.0 27 27
- 0.636 0 1 cbr 500 ------- 1 0.0 2.0 34 34
+ 0.636 0 1 cbr 500 ------- 1 0.0 2.0 136 136
+ 0.637 0 1 cbr 500 ------- 1 0.0 2.0 137 137
d 0.637 0 1 cbr 500 ------- 1 0.0 2.0 137 137
r 0.638 0 1 cbr 500 ------- 1 0.0 2.0 31 31
+ 0.638 1 2 cbr 500 ------- 1 0.0 2.0 31 31
- 0.638 1 2 cbr 500 ------- 1 0.0 2.0 31 31
+ 0.638 0 1 cbr 500 ------- 1 0.0 2.0 138 138
d 0.638 0 1 cbr 500 ------- 1 0.0 2.0 138 138
+ 0.639 0 1 cbr 500 ------- 1 0.0 2.0 139 139
d 0.639 0 1 cbr 500 ------- 1 0.0 2.0 139 139
r 0.64 1 2 cbr 500 ------- 1 0.0 2.0 28 28
- 0.64 0 1 cbr 500 ------- 1 0.0 2.0 35 35
+ 0.64 0 1 cbr 500 ------- 1 0.0 2.0 140 140
+ 0.641 0 1 cbr 500 ------- 1 0.0 2.0 141 141
d 0.641 0 1 cbr 500 ------- 1 0.0 2.0 141 141
r 0.642 0 1 cbr 500 ------- 1 0.0 2.0 32 32
+ 0.642 1 2 cbr 500 ------- 1 0.0 2.0 32 32
- 0.642 1 2 cbr 500 ------- 1 0.0 2.0 32 32
+ 0.642 0 1 cbr 500 ------- 1 0.0 2.0 142 142
d 0.642 0 1 cbr 500 ------- 1 0.0 2.0 142 142
+ 0.643 0 1 cbr 500 ------- 1 0.0 2.0 143 143
d 0.643 0 1 cbr 500 ------- 1 0.0 2.0 143 143
r 0.644 1 2 cbr 500 ------- 1 0.0 2.0 29 29
- 0.644 0 1 cbr 500 ------- 1 0.0 2.0 36 36
+ 0.644 0 1 cbr 500 ------- 1 0.0 2.0 144 144
+ 0.645 0 1 cbr 500 ------- 1 0.0 2.0 145 145
d 0.645 0 1 cbr 500 ------- 1 0.0 2.0 145 145
r 0.646 0 1 cbr 500 ------- 1 0.0 2.0 33 33
+ 0.646 1 2 cbr 500 ------- 1 0.0 2.0 33 33
- 0.646 1 2 cbr 500 ------- 1 0.0 2.0 33 33
+ 0.646 0 1 cbr 500 ------- 1 0.0 2.0 146 146
d 0.646 0 1 cbr 500 ------- 1 0.0 2.0 146 146
+ 0.647 0 1 cbr 500 ------- 1 0.0 2.0 147 147
d 0.647 0 1 cbr 500 ------- 1 0.0 2.0 147 147
r 0.648 1 2 cbr 500 ------- 1 0.0 2.0 30 30
- 0.648 0 1 cbr 500 ------- 1 0.0 2.0 37 37
+ 0.648 0 1 cbr 500 ------- 1 0.0 2.0 148 148
+ 0.649 0 1 cbr 500 ------- 1 0.0 2.0 149 149
d 0.649 0 1 cbr 500 ------- 1 0.0 2.0 149 149
r 0.65 0 1 cbr 500 ------- 1 0.0 2.0 34 34
+ 0.65 1 2 cbr 500 ------- 1 0.0 2.0 34 34
- 0.65 1 2 cbr 500 ------- 1 0.0 2.0 34 34
+ 0.65 0 1 cbr 500 ------- 1 0.0 2.0 150 150
d 0.65 0 1 cbr 500 ------- 1 0.0 2.0 150 150
+ 0.651 0 1 cbr 500 ------- 1 0.0 2.0 151 151
d 0.651 0 1 cbr 500 ------- 1 0.0 2.0 151 151
r 0.652 1 2 cbr 500 ------- 1 0.0 2.0 31 31
- 0.652 0 1 cbr 500 ------- 1 0.0 2.0 38 38
+ 0.652 0 1 cbr 500 ------- 1 0.0 2.0 152 152
+ 0.653 0 1 cbr 500 ------- 1 0.0 2.0 153 153
d 0.653 0 1 cbr 500 ------- 1 0.0 2.0 153 153
r 0.654 0 1 cbr 500 ------- 1 0.0 2.0 35 35
+ 0.654 1 2 cbr 500 ------- 1 0.0 2.0 35 35
- 0.654 1 2 cbr 500 ------- 1 0.0 2.0 35 35
+ 0.654 0 1 cbr 500 ------- 1 0.0 2.0 154 154
d 0.654 0 1 cbr 500 ------- 1 0.0 2.0 154 154
+ 0.655 0 1 cbr 500 ------- 1 0.0 2.0 155 155
d 0.655 0 1 cbr 500 ------- 1 0.0 2.0 155 155
r 0.656 1 2 cbr 500 ------- 1 0.0 2.0 32 32
- 0.656 0 1 cbr 500 ------- 1 0.0 2.0 39 39
+ 0.656 0 1 cbr 500 ------- 1 0.0 2.0 156 156
+ 0.657 0 1 cbr 500 ------- 1 0.0 2.0 157 157
d 0.657 0 1 cbr 500 ------- 1 0.0 2.0 157 157
r 0.658 0 1 cbr 500 ------- 1 0.0 2.0 36 36
+ 0.658 1 2 cbr 500 ------- 1 0.0 2.0 36 36
- 0.658 1 2 cbr 500 ------- 1 0.0 2.0 36 36
+ 0.658 0 1 cbr 500 ------- 1 0.0 2.0 158 158
d 0.658 0 1 cbr 500 ------- 1 0.0 2.0 158 158
+ 0.659 0 1 cbr 500 ------- 1 0.0 2.0 159 159
d 0.659 0 1 cbr 500 ------- 1 0.0 2.0 159 159
r 0.66 1 2 cbr 500 ------- 1 0.0 2.0 33 33
- 0.66 0 1 cbr 500 ------- 1 0.0 2.0 40 40
+ 0.66 0 1 cbr 500 ------- 1 0.0 2.0 160 160
+ 0.661 0 1 cbr 500 ------- 1 0.0 2.0 161 161
d 0.661 0 1 cbr 500 ------- 1 0.0 2.0 161 161
r 0.662 0 1 cbr 500 ------- 1 0.0 2.0 37 37
+ 0.662 1 2 cbr 500 ------- 1 0.0 2.0 37 37
- 0.662 1 2 cbr 500 ------- 1 0.0 2.0 37 37
+ 0.662 0 1 cbr 500 ------- 1 0.0 2.0 162 162
d 0.662 0 1 cbr 500 ------- 1 0.0 2.0 162 162
+ 0.663 0 1 cbr 500 ------- 1 0.0 2.0 163 163
d 0.663 0 1 cbr 500 ------- 1 0.0 2.0 163 163
r 0.664 1 2 cbr 500 ------- 1 0.0 2.0 34 34
- 0.664 0 1 cbr 500 ------- 1 0.0 2.0 41 41
+ 0.664 0 1 cbr 500 ------- 1 0.0 2.0 164 164
+ 0.665 0 1 cbr 500 ------- 1 0.0 2.0 165 165
d 0.665 0 1 cbr 500 ------- 1 0.0 2.0 165 165
r 0.666 0 1 cbr 500 ------- 1 0.0 2.0 38 38
+ 0.666 1 2 cbr 500 ------- 1 0.0 2.0 38 38
- 0.666 1 2 cbr 500 ------- 1 0.0 2.0 38 38
+ 0.666 0 1 cbr 500 ------- 1 0.0 2.0 166 166
d 0.666 0 1 cbr 500 ------- 1 0.0 2.0 166 166
+ 0.667 0 1 cbr 500 ------- 1 0.0 2.0 167 167
d 0.667 0 1 cbr 500 ------- 1 0.0 2.0 167 167
r 0.668 1 2 cbr 500 ------- 1 0.0 2.0 35 35
- 0.668 0 1 cbr 500 ------- 1 0.0 2.0 42 42
+ 0.668 0 1 cbr 500 ------- 1 0.0 2.0 168 168
+ 0.669 0 1 cbr 500 ------- 1 0.0 2.0 169 169
d 0.669 0 1 cbr 500 ------- 1 0.0 2.0 169 169
r 0.67 0 1 cbr 500 ------- 1 0.0 2.0 39 39
+ 0.67 1 2 cbr 500 ------- 1 0.0 2.0 39 39
- 0.67 1 2 cbr 500 ------- 1 0.0 2.0 39 39
+ 0.67 0 1 cbr 500 ------- 1 0.0 2.0 170 170
d 0.67 0 1 cbr 500 ------- 1 0.0 2.0 170 170
+ 0.671 0 1 cbr 500 ------- 1 0.0 2.0 171 171
d 0.671 0 1 cbr 500 ------- 1 0.0 2.0 171 171
r 0.672 1 2 cbr 500 ------- 1 0.0 2.0 36 36
- 0.672 0 1 cbr 500 ------- 1 0.0 2.0 43 43
+ 0.672 0 1 cbr 500 ------- 1 0.0 2.0 172 172
+ 0.673 0 1 cbr 500 ------- 1 0.0 2.0 173 173
d 0.673 0 1 cbr 500 ------- 1 0.0 2.0 173 173
r 0.674 0 1 cbr 500 ------- 1 0.0 2.0 40 40
+ 0.674 1 2 cbr 500 ------- 1 0.0 2.0 40 40
- 0.674 1 2 cbr 500 ------- 1 0.0 2.0 40 40
+ 0.674 0 1 cbr 500 ------- 1 0.0 2.0 174 174
d 0.674 0 1 cbr 500 ------- 1 0.0 2.0 174 174
+ 0.675 0 1 cbr 500 ------- 1 0.0 2.0 175 175
d 0.675 0 1 cbr 500 ------- 1 0.0 2.0 175 175
r 0.676 1 2 cbr 500 ------- 1 0.0 2.0 37 37
- 0.676 0 1 cbr 500 ------- 1 0.0 2.0 44 44
+ 0.676 0 1 cbr 500 ------- 1 0.0 2.0 176 176
+ 0.677 0 1 cbr 500 ------- 1 0.0 2.0 177 177
d 0.677 0 1 cbr 500 ------- 1 0.0 2.0 177 177
r 0.678 0 1 cbr 500 ------- 1 0.0 2.0 41 41
+ 0.678 1 2 cbr 500 ------- 1 0.0 2.0 41 41
- 0.678 1 2 cbr 500 ------- 1 0.0 2.0 41 41
+ 0.678 0 1 cbr 500 ------- 1 0.0 2.0 178 178
d 0.678 0 1 cbr 500 ------- 1 0.0 2.0 178 178
+ 0.679 0 1 cbr 500 ------- 1 0.0 2.0 179 179
d 0.679 0 1 cbr 500 ------- 1 0.0 2.0 179 179
r 0.68 1 2 cbr 500 ------- 1 0.0 2.0 38 38
- 0.68 0 1 cbr 500 ------- 1 0.0 2.0 45 45
+ 0.68 0 1 cbr 500 ------- 1 0.0 2.0 180 180
+ 0.681 0 1 cbr 500 ------- 1 0.0 2.0 181 181
d 0.681 0 1 cbr 500 ------- 1 0.0 2.0 181 181
r 0.682 0 1 cbr 500 ------- 1 0.0 2.0 42 42
+ 0.682 1 2 cbr 500 ------- 1 0.0 2.0 42 42
- 0.682 1 2 cbr 500 ------- 1 0.0 2.0 42 42
+ 0.682 0 1 cbr 500 ------- 1 0.0 2.0 182 182
d 0.682 0 1 cbr 500 ------- 1 0.0 2.0 182 182
+ 0.683 0 1 cbr 500 ------- 1 0.0 2.0 183 183
d 0.683 0 1 cbr 500 ------- 1 0.0 2.0 183 183
r 0.684 1 2 cbr 500 ------- 1 0.0 2.0 39 39
- 0.684 0 1 cbr 500 ------- 1 0.0 2.0 46 46
+ 0.684 0 1 cbr 500 ------- 1 0.0 2.0 184 184
+ 0.685 0 1 cbr 500 ------- 1 0.0 2.0 185 185
d 0.685 0 1 cbr 500 ------- 1 0.0 2.0 185 185
r 0.686 0 1 cbr 500 ------- 1 0.0 2.0 43 43
+ 0.686 1 2 cbr 500 ------- 1 0.0 2.0 43 43
- 0.686 1 2 cbr 500 ------- 1 0.0 2.0 43 43
+ 0.686 0 1 cbr 500 ------- 1 0.0 2.0 186 186
d 0.686 0 1 cbr 500 ------- 1 0.0 2.0 186 186
+ 0.687 0 1 cbr 500 ------- 1 0.0 2.0 187 187
d 0.687 0 1 cbr 500 ------- 1 0.0 2.0 187 187
r 0.688 1 2 cbr 500 ------- 1 0.0 2.0 40 40
- 0.688 0 1 cbr 500 ------- 1 0.0 2.0 47 47
+ 0.688 0 1 cbr 500 ------- 1 0.0 2.0 188 188
+ 0.689 0 1 cbr 500 ------- 1 0.0 2.0 189 189
d 0.689 0 1 cbr 500 ------- 1 0.0 2.0 189 189
r 0.69 0 1 cbr 500 ------- 1 0.0 2.0 44 44
+ 0.69 1 2 cbr 500 ------- 1 0.0 2.0 44 44
- 0.69 1 2 cbr 500 ------- 1 0.0 2.0 44 44
+ 0.69 0 1 cbr 500 ------- 1 0.0 2.0 190 190
d 0.69 0 1 cbr 500 ------- 1 0.0 2.0 190 190
+ 0.691 0 1 cbr 500 ------- 1 0.0 2.0 191 191
d 0.691 0 1 cbr 500 ------- 1 0.0 2.0 191 191
r 0.692 1 2 cbr 500 ------- 1 0.0 2.0 41 41
- 0.692 0 1 cbr 500 ------- 1 0.0 2.0 48 48
+ 0.692 0 1 cbr 500 ------- 1 0.0 2.0 192 192
+ 0.693 0 1 cbr 500 ------- 1 0.0 2.0 193 193
d 0.693 0 1 cbr 500 ------- 1 0.0 2.0 193 193
r 0.694 0 1 cbr 500 ------- 1 0.0 2.0 45 45
+ 0.694 1 2 cbr 500 ------- 1 0.0 2.0 45 45
- 0.694 1 2 cbr 500 ------- 1 0.0 2.0 45 45
+ 0.694 0 1 cbr 500 ------- 1 0.0 2.0 194 194
d 0.694 0 1 cbr 500 ------- 1 0.0 2.0 194 194
+ 0.695 0 1 cbr 500 ------- 1 0.0 2.0 195 195
d 0.695 0 1 cbr 500 ------- 1 0.0 2.0 195 195
r 0.696 1 2 cbr 500 ------- 1 0.0 2.0 42 42
- 0.696 0 1 cbr 500 ------- 1 0.0 2.0 49 49
+ 0.696 0 1 cbr 500 ------- 1 0.0 2.0 196 196
+ 0.697 0 1 cbr 500 ------- 1 0.0 2.0 197 197
d 0.697 0 1 cbr 500 ------- 1 0.0 2.0 197 197
r 0.698 0 1 cbr 500 ------- 1 0.0 2.0 46 46
+ 0.698 1 2 cbr 500 ------- 1 0.0 2.0 46 46
- 0.698 1 2 cbr 500 ------- 1 0.0 2.0 46 46
+ 0.698 0 1 cbr 500 ------- 1 0.0 2.0 198 198
d 0.698 0 1 cbr 500 ------- 1 0.0 2.0 198 198
+ 0.699 0 1 cbr 500 ------- 1 0.0 2.0 199 199
d 0.699 0 1 cbr 500 ------- 1 0.0 2.0 199 199
r 0.7 1 2 cbr 500 ------- 1 0.0 2.0 43 43
- 0.7 0 1 cbr 500 ------- 1 0.0 2.0 50 50
+ 0.7 0 1 cbr 500 ------- 1 0.0 2.0 200 200
+ 0.701 0 1 cbr 500 ------- 1 0.0 2.0 201 201
d 0.701 0 1 cbr 500 ------- 1 0.0 2.0 201 201
r 0.702 0 1 cbr 500 ------- 1 0.0 2.0 47 47
+ 0.702 1 2 cbr 500 ------- 1 0.0 2.0 47 47
- 0.702 1 2 cbr 500 ------- 1 0.0 2.0 47 47
+ 0.702 0 1 cbr 500 ------- 1 0.0 2.0 202 202
d 0.702 0 1 cbr 500 ------- 1 0.0 2.0 202 202
+ 0.703 0 1 cbr 500 ------- 1 0.0 2.0 203 203
d 0.703 0 1 cbr 500 ------- 1 0.0 2.0 203 203
r 0.704 1 2 cbr 500 ------- 1 0.0 2.0 44 44
- 0.704 0 1 cbr 500 ------- 1 0.0 2.0 51 51
+ 0.704 0 1 cbr 500 ------- 1 0.0 2.0 204 204
+ 0.705 0 1 cbr 500 ------- 1 0.0 2.0 205 205
d 0.705 0 1 cbr 500 ------- 1 0.0 2.0 205 205
r 0.706 0 1 cbr 500 ------- 1 0.0 2.0 48 48
+ 0.706 1 2 cbr 500 ------- 1 0.0 2.0 48 48
- 0.706 1 2 cbr 500 ------- 1 0.0 2.0 48 48
+ 0.706 0 1 cbr 500 ------- 1 0.0 2.0 206 206
d 0.706 0 1 cbr 500 ------- 1 0.0 2.0 206 206
+ 0.707 0 1 cbr 500 ------- 1 0.0 2.0 207 207
d 0.707 0 1 cbr 500 ------- 1 0.0 2.0 207 207
r 0.708 1 2 cbr 500 ------- 1 0.0 2.0 45 45
- 0.708 0 1 cbr 500 ------- 1 0.0 2.0 52 52
+ 0.708 0 1 cbr 500 ------- 1 0.0 2.0 208 208
+ 0.709 0 1 cbr 500 ------- 1 0.0 2.0 209 209
d 0.709 0 1 cbr 500 ------- 1 0.0 2.0 209 209
r 0.71 0 1 cbr 500 ------- 1 0.0 2.0 49 49
+ 0.71 1 2 cbr 500 ------- 1 0.0 2.0 49 49
- 0.71 1 2 cbr 500 ------- 1 0.0 2.0 49 49
+ 0.71 0 1 cbr 500 ------- 1 0.0 2.0 210 210
d 0.71 0 1 cbr 500 ------- 1 0.0 2.0 210 210
+ 0.711 0 1 cbr 500 ------- 1 0.0 2.0 211 211
d 0.711 0 1 cbr 500 ------- 1 0.0 2.0 211 211
r 0.712 1 2 cbr 500 ------- 1 0.0 2.0 46 46
- 0.712 0 1 cbr 500 ------- 1 0.0 2.0 53 53
+ 0.712 0 1 cbr 500 ------- 1 0.0 2.0 212 212
+ 0.713 0 1 cbr 500 ------- 1 0.0 2.0 213 213
d 0.713 0 1 cbr 500 ------- 1 0.0 2.0 213 213
r 0.714 0 1 cbr 500 ------- 1 0.0 2.0 50 50
+ 0.714 1 2 cbr 500 ------- 1 0.0 2.0 50 50
- 0.714 1 2 cbr 500 ------- 1 0.0 2.0 50 50
+ 0.714 0 1 cbr 500 ------- 1 0.0 2.0 214 214
d 0.714 0 1 cbr 500 ------- 1 0.0 2.0 214 214
+ 0.715 0 1 cbr 500 ------- 1 0.0 2.0 215 215
d 0.715 0 1 cbr 500 ------- 1 0.0 2.0 215 215
r 0.716 1 2 cbr 500 ------- 1 0.0 2.0 47 47
- 0.716 0 1 cbr 500 ------- 1 0.0 2.0 54 54
+ 0.716 0 1 cbr 500 ------- 1 0.0 2.0 216 216
+ 0.717 0 1 cbr 500 ------- 1 0.0 2.0 217 217
d 0.717 0 1 cbr 500 ------- 1 0.0 2.0 217 217
r 0.718 0 1 cbr 500 ------- 1 0.0 2.0 51 51
+ 0.718 1 2 cbr 500 ------- 1 0.0 2.0 51 51
- 0.718 1 2 cbr 500 ------- 1 0.0 2.0 51 51
+ 0.718 0 1 cbr 500 ------- 1 0.0 2.0 218 218
d 0.718 0 1 cbr 500 ------- 1 0.0 2.0 218 218
+ 0.719 0 1 cbr 500 ------- 1 0.0 2.0 219 219
d 0.719 0 1 cbr 500 ------- 1 0.0 2.0 219 219
r 0.72 1 2 cbr 500 ------- 1 0.0 2.0 48 48
- 0.72 0 1 cbr 500 ------- 1 0.0 2.0 55 55
+ 0.72 0 1 cbr 500 ------- 1 0.0 2.0 220 220
+ 0.721 0 1 cbr 500 ------- 1 0.0 2.0 221 221
d 0.721 0 1 cbr 500 ------- 1 0.0 2.0 221 221
r 0.722 0 1 cbr 500 ------- 1 0.0 2.0 52 52
+ 0.722 1 2 cbr 500 ------- 1 0.0 2.0 52 52
- 0.722 1 2 cbr 500 ------- 1 0.0 2.0 52 52
+ 0.722 0 1 cbr 500 ------- 1 0.0 2.0 222 222
d 0.722 0 1 cbr 500 ------- 1 0.0 2.0 222 222
+ 0.723 0 1 cbr 500 ------- 1 0.0 2.0 223 223
d 0.723 0 1 cbr 500 ------- 1 0.0 2.0 223 223
r 0.724 1 2 cbr 500 ------- 1 0.0 2.0 49 49
- 0.724 0 1 cbr 500 ------- 1 0.0 2.0 56 56
+ 0.724 0 1 cbr 500 ------- 1 0.0 2.0 224 224
+ 0.725 0 1 cbr 500 ------- 1 0.0 2.0 225 225
d 0.725 0 1 cbr 500 ------- 1 0.0 2.0 225 225
r 0.726 0 1 cbr 500 ------- 1 0.0 2.0 53 53
+ 0.726 1 2 cbr 500 ------- 1 0.0 2.0 53 53
- 0.726 1 2 cbr 500 ------- 1 0.0 2.0 53 53
+ 0.726 0 1 cbr 500 ------- 1 0.0 2.0 226 226
d 0.726 0 1 cbr 500 ------- 1 0.0 2.0 226 226
+ 0.727 0 1 cbr 500 ------- 1 0.0 2.0 227 227
d 0.727 0 1 cbr 500 ------- 1 0.0 2.0 227 227
r 0.728 1 2 cbr 500 ------- 1 0.0 2.0 50 50
- 0.728 0 1 cbr 500 ------- 1 0.0 2.0 57 57
+ 0.728 0 1 cbr 500 ------- 1 0.0 2.0 228 228
+ 0.729 0 1 cbr 500 ------- 1 0.0 2.0 229 229
d 0.729 0 1 cbr 500 ------- 1 0.0 2.0 229 229
r 0.73 0 1 cbr 500 ------- 1 0.0 2.0 54 54
+ 0.73 1 2 cbr 500 ------- 1 0.0 2.0 54 54
- 0.73 1 2 cbr 500 ------- 1 0.0 2.0 54 54
+ 0.73 0 1 cbr 500 ------- 1 0.0 2.0 230 230
d 0.73 0 1 cbr 500 ------- 1 0.0 2.0 230 230
+ 0.731 0 1 cbr 500 ------- 1 0.0 2.0 231 231
d 0.731 0 1 cbr 500 ------- 1 0.0 2.0 231 231
r 0.732 1 2 cbr 500 ------- 1 0.0 2.0 51 51
- 0.732 0 1 cbr 500 ------- 1 0.0 2.0 58 58
+ 0.732 0 1 cbr 500 ------- 1 0.0 2.0 232 232
+ 0.733 0 1 cbr 500 ------- 1 0.0 2.0 233 233
d 0.733 0 1 cbr 500 ------- 1 0.0 2.0 233 233
r 0.734 0 1 cbr 500 ------- 1 0.0 2.0 55 55
+ 0.734 1 2 cbr 500 ------- 1 0.0 2.0 55 55
- 0.734 1 2 cbr 500 ------- 1 0.0 2.0 55 55
+ 0.734 0 1 cbr 500 ------- 1 0.0 2.0 234 234
d 0.734 0 1 cbr 500 ------- 1 0.0 2.0 234 234
+ 0.735 0 1 cbr 500 ------- 1 0.0 2.0 235 235
d 0.735 0 1 cbr 500 ------- 1 0.0 2.0 235 235
r 0.736 1 2 cbr 500 ------- 1 0.0 2.0 52 52
- 0.736 0 1 cbr 500 ------- 1 0.0 2.0 59 59
+ 0.736 0 1 cbr 500 ------- 1 0.0 2.0 236 236
+ 0.737 0 1 cbr 500 ------- 1 0.0 2.0 237 237
d 0.737 0 1 cbr 500 ------- 1 0.0 2.0 237 237
r 0.738 0 1 cbr 500 ------- 1 0.0 2.0 56 56
+ 0.738 1 2 cbr 500 ------- 1 0.0 2.0 56 56
- 0.738 1 2 cbr 500 ------- 1 0.0 2.0 56 56
+ 0.738 0 1 cbr 500 ------- 1 0.0 2.0 238 238
d 0.738 0 1 cbr 500 ------- 1 0.0 2.0 238 238
+ 0.739 0 1 cbr 500 ------- 1 0.0 2.0 239 239
d 0.739 0 1 cbr 500 ------- 1 0.0 2.0 239 239
r 0.74 1 2 cbr 500 ------- 1 0.0 2.0 53 53
- 0.74 0 1 cbr 500 ------- 1 0.0 2.0 60 60
+ 0.74 0 1 cbr 500 ------- 1 0.0 2.0 240 240
+ 0.741 0 1 cbr 500 ------- 1 0.0 2.0 241 241
d 0.741 0 1 cbr 500 ------- 1 0.0 2.0 241 241
r 0.742 0 1 cbr 500 ------- 1 0.0 2.0 57 57
+ 0.742 1 2 cbr 500 ------- 1 0.0 2.0 57 57
- 0.742 1 2 cbr 500 ------- 1 0.0 2.0 57 57
+ 0.742 0 1 cbr 500 ------- 1 0.0 2.0 242 242
d 0.742 0 1 cbr 500 ------- 1 0.0 2.0 242 242
+ 0.743 0 1 cbr 500 ------- 1 0.0 2.0 243 243
d 0.743 0 1 cbr 500 ------- 1 0.0 2.0 243 243
r 0.744 1 2 cbr 500 ------- 1 0.0 2.0 54 54
- 0.744 0 1 cbr 500 ------- 1 0.0 2.0 61 61
+ 0.744 0 1 cbr 500 ------- 1 0.0 2.0 244 244
+ 0.745 0 1 cbr 500 ------- 1 0.0 2.0 245 245
d 0.745 0 1 cbr 500 ------- 1 0.0 2.0 245 245
r 0.746 0 1 cbr 500 ------- 1 0.0 2.0 58 58
+ 0.746 1 2 cbr 500 ------- 1 0.0 2.0 58 58
- 0.746 1 2 cbr 500 ------- 1 0.0 2.0 58 58