n -t 0 -s 0 -S DLABEL -l "TCP Source" -L ""
n -t 0 -s 1 -S DLABEL -l "UDP Source" -L ""
n -t 0 -s 2 -S DLABEL -l "TCP/UDP Sink" -L ""
V -t * -v 1.0a5 -a 0
A -t * -n 1 -p 0 -o 0x7fffffff -c 30 -a 1
A -t * -h 1 -m 1073741823 -s 0
c -t * -i 1 -n Red
c -t * -i 2 -n Blue
n -t * -a 0 -s 0 -S UP -v circle -c black -i black
n -t * -a 1 -s 1 -S UP -v circle -c black -i black
n -t * -a 2 -s 2 -S UP -v hexagon -c Green -i Green
l -t * -s 0 -d 2 -S UP -r 100000 -D 0.0050000000000000001 -c black -o down
l -t * -s 1 -d 2 -S UP -r 100000 -D 0.0050000000000000001 -c black -o right
+ -t 0.5 -s 0 -d 2 -p tcp -e 40 -c 1 -i 0 -a 1 -x {0.0 2.0 0 ------- null}
- -t 0.5 -s 0 -d 2 -p tcp -e 40 -c 1 -i 0 -a 1 -x {0.0 2.0 0 ------- null}
h -t 0.5 -s 0 -d 2 -p tcp -e 40 -c 1 -i 0 -a 1 -x {0.0 2.0 -1 ------- null}
r -t 0.5082 -s 0 -d 2 -p tcp -e 40 -c 1 -i 0 -a 1 -x {0.0 2.0 0 ------- null}
+ -t 0.5082 -s 2 -d 0 -p ack -e 40 -c 1 -i 1 -a 1 -x {2.0 0.0 0 ------- null}
- -t 0.5082 -s 2 -d 0 -p ack -e 40 -c 1 -i 1 -a 1 -x {2.0 0.0 0 ------- null}
h -t 0.5082 -s 2 -d 0 -p ack -e 40 -c 1 -i 1 -a 1 -x {2.0 0.0 -1 ------- null}
r -t 0.5164 -s 2 -d 0 -p ack -e 40 -c 1 -i 1 -a 1 -x {2.0 0.0 0 ------- null}
+ -t 0.5164 -s 0 -d 2 -p tcp -e 1040 -c 1 -i 2 -a 1 -x {0.0 2.0 1 ------- null}
- -t 0.5164 -s 0 -d 2 -p tcp -e 1040 -c 1 -i 2 -a 1 -x {0.0 2.0 1 ------- null}
h -t 0.5164 -s 0 -d 2 -p tcp -e 1040 -c 1 -i 2 -a 1 -x {0.0 2.0 -1 ------- null}
+ -t 0.5164 -s 0 -d 2 -p tcp -e 1040 -c 1 -i 3 -a 1 -x {0.0 2.0 2 ------- null}
- -t 0.5996 -s 0 -d 2 -p tcp -e 1040 -c 1 -i 3 -a 1 -x {0.0 2.0 2 ------- null}
h -t 0.5996 -s 0 -d 2 -p tcp -e 1040 -c 1 -i 3 -a 1 -x {0.0 2.0 -1 ------- null}
r -t 0.6046 -s 0 -d 2 -p tcp -e 1040 -c 1 -i 2 -a 1 -x {0.0 2.0 1 ------- null}
+ -t 0.6046 -s 2 -d 0 -p ack -e 40 -c 1 -i 4 -a 1 -x {2.0 0.0 1 ------- null}
- -t 0.6046 -s 2 -d 0 -p ack -e 40 -c 1 -i 4 -a 1 -x {2.0 0.0 1 ------- null}
h -t 0.6046 -s 2 -d 0 -p ack -e 40 -c 1 -i 4 -a 1 -x {2.0 0.0 -1 ------- null}
r -t 0.6128 -s 2 -d 0 -p ack -e 40 -c 1 -i 4 -a 1 -x {2.0 0.0 1 ------- null}
+ -t 0.6128 -s 0 -d 2 -p tcp -e 1040 -c 1 -i 5 -a 1 -x {0.0 2.0 3 ------- null}
+ -t 0.6128 -s 0 -d 2 -p tcp -e 1040 -c 1 -i 6 -a 1 -x {0.0 2.0 4 ------- null}
- -t 0.6828 -s 0 -d 2 -p tcp -e 1040 -c 1 -i 5 -a 1 -x {0.0 2.0 3 ------- null}
h -t 0.6828 -s 0 -d 2 -p tcp -e 1040 -c 1 -i 5 -a 1 -x {0.0 2.0 -1 ------- null}
r -t 0.6878 -s 0 -d 2 -p tcp -e 1040 -c 1 -i 3 -a 1 -x {0.0 2.0 2 ------- null}
+ -t 0.6878 -s 2 -d 0 -p ack -e 40 -c 1 -i 7 -a 1 -x {2.0 0.0 2 ------- null}
- -t 0.6878 -s 2 -d 0 -p ack -e 40 -c 1 -i 7 -a 1 -x {2.0 0.0 2 ------- null}
h -t 0.6878 -s 2 -d 0 -p ack -e 40 -c 1 -i 7 -a 1 -x {2.0 0.0 -1 ------- null}
r -t 0.696 -s 2 -d 0 -p ack -e 40 -c 1 -i 7 -a 1 -x {2.0 0.0 2 ------- null}
+ -t 0.696 -s 0 -d 2 -p tcp -e 1040 -c 1 -i 8 -a 1 -x {0.0 2.0 5 ------- null}
+ -t 0.696 -s 0 -d 2 -p tcp -e 1040 -c 1 -i 9 -a 1 -x {0.0 2.0 6 ------- null}
- -t 0.766 -s 0 -d 2 -p tcp -e 1040 -c 1 -i 6 -a 1 -x {0.0 2.0 4 ------- null}
h -t 0.766 -s 0 -d 2 -p tcp -e 1040 -c 1 -i 6 -a 1 -x {0.0 2.0 -1 ------- null}
r -t 0.771 -s 0 -d 2 -p tcp -e 1040 -c 1 -i 5 -a 1 -x {0.0 2.0 3 ------- null}
+ -t 0.771 -s 2 -d 0 -p ack -e 40 -c 1 -i 10 -a 1 -x {2.0 0.0 3 ------- null}
- -t 0.771 -s 2 -d 0 -p ack -e 40 -c 1 -i 10 -a 1 -x {2.0 0.0 3 ------- null}
h -t 0.771 -s 2 -d 0 -p ack -e 40 -c 1 -i 10 -a 1 -x {2.0 0.0 -1 ------- null}
r -t 0.7792 -s 2 -d 0 -p ack -e 40 -c 1 -i 10 -a 1 -x {2.0 0.0 3 ------- null}
+ -t 0.7792 -s 0 -d 2 -p tcp -e 1040 -c 1 -i 11 -a 1 -x {0.0 2.0 7 ------- null}
+ -t 0.7792 -s 0 -d 2 -p tcp -e 1040 -c 1 -i 12 -a 1 -x {0.0 2.0 8 ------- null}
- -t 0.8492 -s 0 -d 2 -p tcp -e 1040 -c 1 -i 8 -a 1 -x {0.0 2.0 5 ------- null}
h -t 0.8492 -s 0 -d 2 -p tcp -e 1040 -c 1 -i 8 -a 1 -x {0.0 2.0 -1 ------- null}
r -t 0.8542 -s 0 -d 2 -p tcp -e 1040 -c 1 -i 6 -a 1 -x {0.0 2.0 4 ------- null}
+ -t 0.8542 -s 2 -d 0 -p ack -e 40 -c 1 -i 13 -a 1 -x {2.0 0.0 4 ------- null}
- -t 0.8542 -s 2 -d 0 -p ack -e 40 -c 1 -i 13 -a 1 -x {2.0 0.0 4 ------- null}
h -t 0.8542 -s 2 -d 0 -p ack -e 40 -c 1 -i 13 -a 1 -x {2.0 0.0 -1 ------- null}
r -t 0.8624 -s 2 -d 0 -p ack -e 40 -c 1 -i 13 -a 1 -x {2.0 0.0 4 ------- null}
+ -t 0.8624 -s 0 -d 2 -p tcp -e 1040 -c 1 -i 14 -a 1 -x {0.0 2.0 9 ------- null}
+ -t 0.8624 -s 0 -d 2 -p tcp -e 1040 -c 1 -i 15 -a 1 -x {0.0 2.0 10 ------- null}
- -t 0.9324 -s 0 -d 2 -p tcp -e 1040 -c 1 -i 9 -a 1 -x {0.0 2.0 6 ------- null}
h -t 0.9324 -s 0 -d 2 -p tcp -e 1040 -c 1 -i 9 -a 1 -x {0.0 2.0 -1 ------- null}
r -t 0.9374 -s 0 -d 2 -p tcp -e 1040 -c 1 -i 8 -a 1 -x {0.0 2.0 5 ------- null}
+ -t 0.9374 -s 2 -d 0 -p ack -e 40 -c 1 -i 16 -a 1 -x {2.0 0.0 5 ------- null}
- -t 0.9374 -s 2 -d 0 -p ack -e 40 -c 1 -i 16 -a 1 -x {2.0 0.0 5 ------- null}
h -t 0.9374 -s 2 -d 0 -p ack -e 40 -c 1 -i 16 -a 1 -x {2.0 0.0 -1 ------- null}
r -t 0.9456 -s 2 -d 0 -p ack -e 40 -c 1 -i 16 -a 1 -x {2.0 0.0 5 ------- null}
+ -t 0.9456 -s 0 -d 2 -p tcp -e 1040 -c 1 -i 17 -a 1 -x {0.0 2.0 11 ------- null}
+ -t 0.9456 -s 0 -d 2 -p tcp -e 1040 -c 1 -i 18 -a 1 -x {0.0 2.0 12 ------- null}
+ -t 1 -s 1 -d 2 -p cbr -e 210 -c 2 -i 19 -a 2 -x {1.0 2.1 0 ------- null}
- -t 1 -s 1 -d 2 -p cbr -e 210 -c 2 -i 19 -a 2 -x {1.0 2.1 0 ------- null}
h -t 1 -s 1 -d 2 -p cbr -e 210 -c 2 -i 19 -a 2 -x {1.0 2.1 -1 ------- null}
+ -t 1.00375 -s 1 -d 2 -p cbr -e 210 -c 2 -i 20 -a 2 -x {1.0 2.1 1 ------- null}
+ -t 1.0075 -s 1 -d 2 -p cbr -e 210 -c 2 -i 21 -a 2 -x {1.0 2.1 2 ------- null}
+ -t 1.01125 -s 1 -d 2 -p cbr -e 210 -c 2 -i 22 -a 2 -x {1.0 2.1 3 ------- null}
+ -t 1.015 -s 1 -d 2 -p cbr -e 210 -c 2 -i 23 -a 2 -x {1.0 2.1 4 ------- null}
- -t 1.0156 -s 0 -d 2 -p tcp -e 1040 -c 1 -i 11 -a 1 -x {0.0 2.0 7 ------- null}
h -t 1.0156 -s 0 -d 2 -p tcp -e 1040 -c 1 -i 11 -a 1 -x {0.0 2.0 -1 ------- null}
- -t 1.0168 -s 1 -d 2 -p cbr -e 210 -c 2 -i 20 -a 2 -x {1.0 2.1 1 ------- null}
h -t 1.0168 -s 1 -d 2 -p cbr -e 210 -c 2 -i 20 -a 2 -x {1.0 2.1 -1 ------- null}
+ -t 1.01875 -s 1 -d 2 -p cbr -e 210 -c 2 -i 24 -a 2 -x {1.0 2.1 5 ------- null}
r -t 1.0206 -s 0 -d 2 -p tcp -e 1040 -c 1 -i 9 -a 1 -x {0.0 2.0 6 ------- null}
+ -t 1.0206 -s 2 -d 0 -p ack -e 40 -c 1 -i 25 -a 1 -x {2.0 0.0 6 ------- null}
- -t 1.0206 -s 2 -d 0 -p ack -e 40 -c 1 -i 25 -a 1 -x {2.0 0.0 6 ------- null}
h -t 1.0206 -s 2 -d 0 -p ack -e 40 -c 1 -i 25 -a 1 -x {2.0 0.0 -1 ------- null}
r -t 1.0218 -s 1 -d 2 -p cbr -e 210 -c 2 -i 19 -a 2 -x {1.0 2.1 0 ------- null}
+ -t 1.0225 -s 1 -d 2 -p cbr -e 210 -c 2 -i 26 -a 2 -x {1.0 2.1 6 ------- null}
+ -t 1.02625 -s 1 -d 2 -p cbr -e 210 -c 2 -i 27 -a 2 -x {1.0 2.1 7 ------- null}
r -t 1.0288 -s 2 -d 0 -p ack -e 40 -c 1 -i 25 -a 1 -x {2.0 0.0 6 ------- null}
+ -t 1.0288 -s 0 -d 2 -p tcp -e 1040 -c 1 -i 28 -a 1 -x {0.0 2.0 13 ------- null}
+ -t 1.0288 -s 0 -d 2 -p tcp -e 1040 -c 1 -i 29 -a 1 -x {0.0 2.0 14 ------- null}
+ -t 1.03 -s 1 -d 2 -p cbr -e 210 -c 2 -i 30 -a 2 -x {1.0 2.1 8 ------- null}
- -t 1.0336 -s 1 -d 2 -p cbr -e 210 -c 2 -i 21 -a 2 -x {1.0 2.1 2 ------- null}
h -t 1.0336 -s 1 -d 2 -p cbr -e 210 -c 2 -i 21 -a 2 -x {1.0 2.1 -1 ------- null}
+ -t 1.03375 -s 1 -d 2 -p cbr -e 210 -c 2 -i 31 -a 2 -x {1.0 2.1 9 ------- null}
+ -t 1.0375 -s 1 -d 2 -p cbr -e 210 -c 2 -i 32 -a 2 -x {1.0 2.1 10 ------- null}
r -t 1.0386 -s 1 -d 2 -p cbr -e 210 -c 2 -i 20 -a 2 -x {1.0 2.1 1 ------- null}
+ -t 1.04125 -s 1 -d 2 -p cbr -e 210 -c 2 -i 33 -a 2 -x {1.0 2.1 11 ------- null}
+ -t 1.045 -s 1 -d 2 -p cbr -e 210 -c 2 -i 34 -a 2 -x {1.0 2.1 12 ------- null}
d -t 1.045 -s 1 -d 2 -p cbr -e 210 -c 2 -i 34 -a 2 -x {1.0 2.1 12 ------- null}
+ -t 1.04875 -s 1 -d 2 -p cbr -e 210 -c 2 -i 35 -a 2 -x {1.0 2.1 13 ------- null}
d -t 1.04875 -s 1 -d 2 -p cbr -e 210 -c 2 -i 35 -a 2 -x {1.0 2.1 13 ------- null}
- -t 1.0504 -s 1 -d 2 -p cbr -e 210 -c 2 -i 22 -a 2 -x {1.0 2.1 3 ------- null}
h -t 1.0504 -s 1 -d 2 -p cbr -e 210 -c 2 -i 22 -a 2 -x {1.0 2.1 -1 ------- null}
+ -t 1.0525 -s 1 -d 2 -p cbr -e 210 -c 2 -i 36 -a 2 -x {1.0 2.1 14 ------- null}
r -t 1.0554 -s 1 -d 2 -p cbr -e 210 -c 2 -i 21 -a 2 -x {1.0 2.1 2 ------- null}
+ -t 1.05625 -s 1 -d 2 -p cbr -e 210 -c 2 -i 37 -a 2 -x {1.0 2.1 15 ------- null}
d -t 1.05625 -s 1 -d 2 -p cbr -e 210 -c 2 -i 37 -a 2 -x {1.0 2.1 15 ------- null}
+ -t 1.06 -s 1 -d 2 -p cbr -e 210 -c 2 -i 38 -a 2 -x {1.0 2.1 16 ------- null}
d -t 1.06 -s 1 -d 2 -p cbr -e 210 -c 2 -i 38 -a 2 -x {1.0 2.1 16 ------- null}
+ -t 1.06375 -s 1 -d 2 -p cbr -e 210 -c 2 -i 39 -a 2 -x {1.0 2.1 17 ------- null}
d -t 1.06375 -s 1 -d 2 -p cbr -e 210 -c 2 -i 39 -a 2 -x {1.0 2.1 17 ------- null}
- -t 1.0672 -s 1 -d 2 -p cbr -e 210 -c 2 -i 23 -a 2 -x {1.0 2.1 4 ------- null}
h -t 1.0672 -s 1 -d 2 -p cbr -e 210 -c 2 -i 23 -a 2 -x {1.0 2.1 -1 ------- null}
+ -t 1.0675 -s 1 -d 2 -p cbr -e 210 -c 2 -i 40 -a 2 -x {1.0 2.1 18 ------- null}
+ -t 1.07125 -s 1 -d 2 -p cbr -e 210 -c 2 -i 41 -a 2 -x {1.0 2.1 19 ------- null}
d -t 1.07125 -s 1 -d 2 -p cbr -e 210 -c 2 -i 41 -a 2 -x {1.0 2.1 19 ------- null}
r -t 1.0722 -s 1 -d 2 -p cbr -e 210 -c 2 -i 22 -a 2 -x {1.0 2.1 3 ------- null}
+ -t 1.075 -s 1 -d 2 -p cbr -e 210 -c 2 -i 42 -a 2 -x {1.0 2.1 20 ------- null}
d -t 1.075 -s 1 -d 2 -p cbr -e 210 -c 2 -i 42 -a 2 -x {1.0 2.1 20 ------- null}
+ -t 1.07875 -s 1 -d 2 -p cbr -e 210 -c 2 -i 43 -a 2 -x {1.0 2.1 21 ------- null}
d -t 1.07875 -s 1 -d 2 -p cbr -e 210 -c 2 -i 43 -a 2 -x {1.0 2.1 21 ------- null}
+ -t 1.0825 -s 1 -d 2 -p cbr -e 210 -c 2 -i 44 -a 2 -x {1.0 2.1 22 ------- null}
d -t 1.0825 -s 1 -d 2 -p cbr -e 210 -c 2 -i 44 -a 2 -x {1.0 2.1 22 ------- null}
- -t 1.084 -s 1 -d 2 -p cbr -e 210 -c 2 -i 24 -a 2 -x {1.0 2.1 5 ------- null}
h -t 1.084 -s 1 -d 2 -p cbr -e 210 -c 2 -i 24 -a 2 -x {1.0 2.1 -1 ------- null}
+ -t 1.08625 -s 1 -d 2 -p cbr -e 210 -c 2 -i 45 -a 2 -x {1.0 2.1 23 ------- null}
r -t 1.089 -s 1 -d 2 -p cbr -e 210 -c 2 -i 23 -a 2 -x {1.0 2.1 4 ------- null}
+ -t 1.09 -s 1 -d 2 -p cbr -e 210 -c 2 -i 46 -a 2 -x {1.0 2.1 24 ------- null}
d -t 1.09 -s 1 -d 2 -p cbr -e 210 -c 2 -i 46 -a 2 -x {1.0 2.1 24 ------- null}
+ -t 1.09375 -s 1 -d 2 -p cbr -e 210 -c 2 -i 47 -a 2 -x {1.0 2.1 25 ------- null}
d -t 1.09375 -s 1 -d 2 -p cbr -e 210 -c 2 -i 47 -a 2 -x {1.0 2.1 25 ------- null}
+ -t 1.0975 -s 1 -d 2 -p cbr -e 210 -c 2 -i 48 -a 2 -x {1.0 2.1 26 ------- null}
d -t 1.0975 -s 1 -d 2 -p cbr -e 210 -c 2 -i 48 -a 2 -x {1.0 2.1 26 ------- null}
- -t 1.0988 -s 0 -d 2 -p tcp -e 1040 -c 1 -i 12 -a 1 -x {0.0 2.0 8 ------- null}
h -t 1.0988 -s 0 -d 2 -p tcp -e 1040 -c 1 -i 12 -a 1 -x {0.0 2.0 -1 ------- null}
- -t 1.1008 -s 1 -d 2 -p cbr -e 210 -c 2 -i 26 -a 2 -x {1.0 2.1 6 ------- null}
h -t 1.1008 -s 1 -d 2 -p cbr -e 210 -c 2 -i 26 -a 2 -x {1.0 2.1 -1 ------- null}
+ -t 1.10125 -s 1 -d 2 -p cbr -e 210 -c 2 -i 49 -a 2 -x {1.0 2.1 27 ------- null}
r -t 1.1038 -s 0 -d 2 -p tcp -e 1040 -c 1 -i 11 -a 1 -x {0.0 2.0 7 ------- null}
+ -t 1.1038 -s 2 -d 0 -p ack -e 40 -c 1 -i 50 -a 1 -x {2.0 0.0 7 ------- null}
- -t 1.1038 -s 2 -d 0 -p ack -e 40 -c 1 -i 50 -a 1 -x {2.0 0.0 7 ------- null}
h -t 1.1038 -s 2 -d 0 -p ack -e 40 -c 1 -i 50 -a 1 -x {2.0 0.0 -1 ------- null}
+ -t 1.105 -s 1 -d 2 -p cbr -e 210 -c 2 -i 51 -a 2 -x {1.0 2.1 28 ------- null}
d -t 1.105 -s 1 -d 2 -p cbr -e 210 -c 2 -i 51 -a 2 -x {1.0 2.1 28 ------- null}
r -t 1.1058 -s 1 -d 2 -p cbr -e 210 -c 2 -i 24 -a 2 -x {1.0 2.1 5 ------- null}
+ -t 1.10875 -s 1 -d 2 -p cbr -e 210 -c 2 -i 52 -a 2 -x {1.0 2.1 29 ------- null}
d -t 1.10875 -s 1 -d 2 -p cbr -e 210 -c 2 -i 52 -a 2 -x {1.0 2.1 29 ------- null}
r -t 1.112 -s 2 -d 0 -p ack -e 40 -c 1 -i 50 -a 1 -x {2.0 0.0 7 ------- null}
+ -t 1.112 -s 0 -d 2 -p tcp -e 1040 -c 1 -i 53 -a 1 -x {0.0 2.0 15 ------- null}
+ -t 1.112 -s 0 -d 2 -p tcp -e 1040 -c 1 -i 54 -a 1 -x {0.0 2.0 16 ------- null}
+ -t 1.1125 -s 1 -d 2 -p cbr -e 210 -c 2 -i 55 -a 2 -x {1.0 2.1 30 ------- null}
d -t 1.1125 -s 1 -d 2 -p cbr -e 210 -c 2 -i 55 -a 2 -x {1.0 2.1 30 ------- null}
+ -t 1.11625 -s 1 -d 2 -p cbr -e 210 -c 2 -i 56 -a 2 -x {1.0 2.1 31 ------- null}
d -t 1.11625 -s 1 -d 2 -p cbr -e 210 -c 2 -i 56 -a 2 -x {1.0 2.1 31 ------- null}
- -t 1.1176 -s 1 -d 2 -p cbr -e 210 -c 2 -i 27 -a 2 -x {1.0 2.1 7 ------- null}
h -t 1.1176 -s 1 -d 2 -p cbr -e 210 -c 2 -i 27 -a 2 -x {1.0 2.1 -1 ------- null}
+ -t 1.12 -s 1 -d 2 -p cbr -e 210 -c 2 -i 57 -a 2 -x {1.0 2.1 32 ------- null}
r -t 1.1226 -s 1 -d 2 -p cbr -e 210 -c 2 -i 26 -a 2 -x {1.0 2.1 6 ------- null}
+ -t 1.12375 -s 1 -d 2 -p cbr -e 210 -c 2 -i 58 -a 2 -x {1.0 2.1 33 ------- null}
d -t 1.12375 -s 1 -d 2 -p cbr -e 210 -c 2 -i 58 -a 2 -x {1.0 2.1 33 ------- null}
+ -t 1.1275 -s 1 -d 2 -p cbr -e 210 -c 2 -i 59 -a 2 -x {1.0 2.1 34 ------- null}
d -t 1.1275 -s 1 -d 2 -p cbr -e 210 -c 2 -i 59 -a 2 -x {1.0 2.1 34 ------- null}
+ -t 1.13125 -s 1 -d 2 -p cbr -e 210 -c 2 -i 60 -a 2 -x {1.0 2.1 35 ------- null}
d -t 1.13125 -s 1 -d 2 -p cbr -e 210 -c 2 -i 60 -a 2 -x {1.0 2.1 35 ------- null}
- -t 1.1344 -s 1 -d 2 -p cbr -e 210 -c 2 -i 30 -a 2 -x {1.0 2.1 8 ------- null}
h -t 1.1344 -s 1 -d 2 -p cbr -e 210 -c 2 -i 30 -a 2 -x {1.0 2.1 -1 ------- null}
+ -t 1.135 -s 1 -d 2 -p cbr -e 210 -c 2 -i 61 -a 2 -x {1.0 2.1 36 ------- null}
+ -t 1.13875 -s 1 -d 2 -p cbr -e 210 -c 2 -i 62 -a 2 -x {1.0 2.1 37 ------- null}
d -t 1.13875 -s 1 -d 2 -p cbr -e 210 -c 2 -i 62 -a 2 -x {1.0 2.1 37 ------- null}
r -t 1.1394 -s 1 -d 2 -p cbr -e 210 -c 2 -i 27 -a 2 -x {1.0 2.1 7 ------- null}
+ -t 1.1425 -s 1 -d 2 -p cbr -e 210 -c 2 -i 63 -a 2 -x {1.0 2.1 38 ------- null}
d -t 1.1425 -s 1 -d 2 -p cbr -e 210 -c 2 -i 63 -a 2 -x {1.0 2.1 38 ------- null}
+ -t 1.14625 -s 1 -d 2 -p cbr -e 210 -c 2 -i 64 -a 2 -x {1.0 2.1 39 ------- null}
d -t 1.14625 -s 1 -d 2 -p cbr -e 210 -c 2 -i 64 -a 2 -x {1.0 2.1 39 ------- null}
+ -t 1.15 -s 1 -d 2 -p cbr -e 210 -c 2 -i 65 -a 2 -x {1.0 2.1 40 ------- null}
d -t 1.15 -s 1 -d 2 -p cbr -e 210 -c 2 -i 65 -a 2 -x {1.0 2.1 40 ------- null}
- -t 1.1512 -s 1 -d 2 -p cbr -e 210 -c 2 -i 31 -a 2 -x {1.0 2.1 9 ------- null}
h -t 1.1512 -s 1 -d 2 -p cbr -e 210 -c 2 -i 31 -a 2 -x {1.0 2.1 -1 ------- null}
+ -t 1.15375 -s 1 -d 2 -p cbr -e 210 -c 2 -i 66 -a 2 -x {1.0 2.1 41 ------- null}
r -t 1.1562 -s 1 -d 2 -p cbr -e 210 -c 2 -i 30 -a 2 -x {1.0 2.1 8 ------- null}
+ -t 1.1575 -s 1 -d 2 -p cbr -e 210 -c 2 -i 67 -a 2 -x {1.0 2.1 42 ------- null}
d -t 1.1575 -s 1 -d 2 -p cbr -e 210 -c 2 -i 67 -a 2 -x {1.0 2.1 42 ------- null}
+ -t 1.16125 -s 1 -d 2 -p cbr -e 210 -c 2 -i 68 -a 2 -x {1.0 2.1 43 ------- null}
d -t 1.16125 -s 1 -d 2 -p cbr -e 210 -c 2 -i 68 -a 2 -x {1.0 2.1 43 ------- null}
+ -t 1.165 -s 1 -d 2 -p cbr -e 210 -c 2 -i 69 -a 2 -x {1.0 2.1 44 ------- null}
d -t 1.165 -s 1 -d 2 -p cbr -e 210 -c 2 -i 69 -a 2 -x {1.0 2.1 44 ------- null}
- -t 1.168 -s 1 -d 2 -p cbr -e 210 -c 2 -i 32 -a 2 -x {1.0 2.1 10 ------- null}
h -t 1.168 -s 1 -d 2 -p cbr -e 210 -c 2 -i 32 -a 2 -x {1.0 2.1 -1 ------- null}
+ -t 1.16875 -s 1 -d 2 -p cbr -e 210 -c 2 -i 70 -a 2 -x {1.0 2.1 45 ------- null}
+ -t 1.1725 -s 1 -d 2 -p cbr -e 210 -c 2 -i 71 -a 2 -x {1.0 2.1 46 ------- null}
d -t 1.1725 -s 1 -d 2 -p cbr -e 210 -c 2 -i 71 -a 2 -x {1.0 2.1 46 ------- null}
r -t 1.173 -s 1 -d 2 -p cbr -e 210 -c 2 -i 31 -a 2 -x {1.0 2.1 9 ------- null}
+ -t 1.17625 -s 1 -d 2 -p cbr -e 210 -c 2 -i 72 -a 2 -x {1.0 2.1 47 ------- null}
d -t 1.17625 -s 1 -d 2 -p cbr -e 210 -c 2 -i 72 -a 2 -x {1.0 2.1 47 ------- null}
+ -t 1.18 -s 1 -d 2 -p cbr -e 210 -c 2 -i 73 -a 2 -x {1.0 2.1 48 ------- null}
d -t 1.18 -s 1 -d 2 -p cbr -e 210 -c 2 -i 73 -a 2 -x {1.0 2.1 48 ------- null}
- -t 1.182 -s 0 -d 2 -p tcp -e 1040 -c 1 -i 14 -a 1 -x {0.0 2.0 9 ------- null}
h -t 1.182 -s 0 -d 2 -p tcp -e 1040 -c 1 -i 14 -a 1 -x {0.0 2.0 -1 ------- null}
+ -t 1.18375 -s 1 -d 2 -p cbr -e 210 -c 2 -i 74 -a 2 -x {1.0 2.1 49 ------- null}
d -t 1.18375 -s 1 -d 2 -p cbr -e 210 -c 2 -i 74 -a 2 -x {1.0 2.1 49 ------- null}
- -t 1.1848 -s 1 -d 2 -p cbr -e 210 -c 2 -i 33 -a 2 -x {1.0 2.1 11 ------- null}
h -t 1.1848 -s 1 -d 2 -p cbr -e 210 -c 2 -i 33 -a 2 -x {1.0 2.1 -1 ------- null}
r -t 1.187 -s 0 -d 2 -p tcp -e 1040 -c 1 -i 12 -a 1 -x {0.0 2.0 8 ------- null}
+ -t 1.187 -s 2 -d 0 -p ack -e 40 -c 1 -i 75 -a 1 -x {2.0 0.0 8 ------- null}
- -t 1.187 -s 2 -d 0 -p ack -e 40 -c 1 -i 75 -a 1 -x {2.0 0.0 8 ------- null}
h -t 1.187 -s 2 -d 0 -p ack -e 40 -c 1 -i 75 -a 1 -x {2.0 0.0 -1 ------- null}
+ -t 1.1875 -s 1 -d 2 -p cbr -e 210 -c 2 -i 76 -a 2 -x {1.0 2.1 50 ------- null}
r -t 1.1898 -s 1 -d 2 -p cbr -e 210 -c 2 -i 32 -a 2 -x {1.0 2.1 10 ------- null}
+ -t 1.19125 -s 1 -d 2 -p cbr -e 210 -c 2 -i 77 -a 2 -x {1.0 2.1 51 ------- null}
d -t 1.19125 -s 1 -d 2 -p cbr -e 210 -c 2 -i 77 -a 2 -x {1.0 2.1 51 ------- null}
+ -t 1.195 -s 1 -d 2 -p cbr -e 210 -c 2 -i 78 -a 2 -x {1.0 2.1 52 ------- null}
d -t 1.195 -s 1 -d 2 -p cbr -e 210 -c 2 -i 78 -a 2 -x {1.0 2.1 52 ------- null}
r -t 1.1952 -s 2 -d 0 -p ack -e 40 -c 1 -i 75 -a 1 -x {2.0 0.0 8 ------- null}
+ -t 1.1952 -s 0 -d 2 -p tcp -e 1040 -c 1 -i 79 -a 1 -x {0.0 2.0 17 ------- null}
+ -t 1.1952 -s 0 -d 2 -p tcp -e 1040 -c 1 -i 80 -a 1 -x {0.0 2.0 18 ------- null}
+ -t 1.19875 -s 1 -d 2 -p cbr -e 210 -c 2 -i 81 -a 2 -x {1.0 2.1 53 ------- null}
d -t 1.19875 -s 1 -d 2 -p cbr -e 210 -c 2 -i 81 -a 2 -x {1.0 2.1 53 ------- null}
- -t 1.2016 -s 1 -d 2 -p cbr -e 210 -c 2 -i 36 -a 2 -x {1.0 2.1 14 ------- null}
h -t 1.2016 -s 1 -d 2 -p cbr -e 210 -c 2 -i 36 -a 2 -x {1.0 2.1 -1 ------- null}
+ -t 1.2025 -s 1 -d 2 -p cbr -e 210 -c 2 -i 82 -a 2 -x {1.0 2.1 54 ------- null}
+ -t 1.20625 -s 1 -d 2 -p cbr -e 210 -c 2 -i 83 -a 2 -x {1.0 2.1 55 ------- null}
d -t 1.20625 -s 1 -d 2 -p cbr -e 210 -c 2 -i 83 -a 2 -x {1.0 2.1 55 ------- null}
r -t 1.2066 -s 1 -d 2 -p cbr -e 210 -c 2 -i 33 -a 2 -x {1.0 2.1 11 ------- null}
+ -t 1.21 -s 1 -d 2 -p cbr -e 210 -c 2 -i 84 -a 2 -x {1.0 2.1 56 ------- null}
d -t 1.21 -s 1 -d 2 -p cbr -e 210 -c 2 -i 84 -a 2 -x {1.0 2.1 56 ------- null}
+ -t 1.21375 -s 1 -d 2 -p cbr -e 210 -c 2 -i 85 -a 2 -x {1.0 2.1 57 ------- null}
d -t 1.21375 -s 1 -d 2 -p cbr -e 210 -c 2 -i 85 -a 2 -x {1.0 2.1 57 ------- null}
+ -t 1.2175 -s 1 -d 2 -p cbr -e 210 -c 2 -i 86 -a 2 -x {1.0 2.1 58 ------- null}
d -t 1.2175 -s 1 -d 2 -p cbr -e 210 -c 2 -i 86 -a 2 -x {1.0 2.1 58 ------- null}
- -t 1.2184 -s 1 -d 2 -p cbr -e 210 -c 2 -i 40 -a 2 -x {1.0 2.1 18 ------- null}
h -t 1.2184 -s 1 -d 2 -p cbr -e 210 -c 2 -i 40 -a 2 -x {1.0 2.1 -1 ------- null}
+ -t 1.22125 -s 1 -d 2 -p cbr -e 210 -c 2 -i 87 -a 2 -x {1.0 2.1 59 ------- null}
r -t 1.2234 -s 1 -d 2 -p cbr -e 210 -c 2 -i 36 -a 2 -x {1.0 2.1 14 ------- null}
+ -t 1.225 -s 1 -d 2 -p cbr -e 210 -c 2 -i 88 -a 2 -x {1.0 2.1 60 ------- null}
d -t 1.225 -s 1 -d 2 -p cbr -e 210 -c 2 -i 88 -a 2 -x {1.0 2.1 60 ------- null}
+ -t 1.22875 -s 1 -d 2 -p cbr -e 210 -c 2 -i 89 -a 2 -x {1.0 2.1 61 ------- null}
d -t 1.22875 -s 1 -d 2 -p cbr -e 210 -c 2 -i 89 -a 2 -x {1.0 2.1 61 ------- null}
+ -t 1.2325 -s 1 -d 2 -p cbr -e 210 -c 2 -i 90 -a 2 -x {1.0 2.1 62 ------- null}
d -t 1.2325 -s 1 -d 2 -p cbr -e 210 -c 2 -i 90 -a 2 -x {1.0 2.1 62 ------- null}
- -t 1.2352 -s 1 -d 2 -p cbr -e 210 -c 2 -i 45 -a 2 -x {1.0 2.1 23 ------- null}
h -t 1.2352 -s 1 -d 2 -p cbr -e 210 -c 2 -i 45 -a 2 -x {1.0 2.1 -1 ------- null}
+ -t 1.23624999999999 -s 1 -d 2 -p cbr -e 210 -c 2 -i 91 -a 2 -x {1.0 2.1 63 ------- null}
+ -t 1.23999999999999 -s 1 -d 2 -p cbr -e 210 -c 2 -i 92 -a 2 -x {1.0 2.1 64 ------- null}
d -t 1.23999999999999 -s 1 -d 2 -p cbr -e 210 -c 2 -i 92 -a 2 -x {1.0 2.1 64 ------- null}
r -t 1.2402 -s 1 -d 2 -p cbr -e 210 -c 2 -i 40 -a 2 -x {1.0 2.1 18 ------- null}
+ -t 1.24374999999999 -s 1 -d 2 -p cbr -e 210 -c 2 -i 93 -a 2 -x {1.0 2.1 65 ------- null}
d -t 1.24374999999999 -s 1 -d 2 -p cbr -e 210 -c 2 -i 93 -a 2 -x {1.0 2.1 65 ------- null}
+ -t 1.24749999999999 -s 1 -d 2 -p cbr -e 210 -c 2 -i 94 -a 2 -x {1.0 2.1 66 ------- null}
d -t 1.24749999999999 -s 1 -d 2 -p cbr -e 210 -c 2 -i 94 -a 2 -x {1.0 2.1 66 ------- null}
+ -t 1.25124999999999 -s 1 -d 2 -p cbr -e 210 -c 2 -i 95 -a 2 -x {1.0 2.1 67 ------- null}
d -t 1.25124999999999 -s 1 -d 2 -p cbr -e 210 -c 2 -i 95 -a 2 -x {1.0 2.1 67 ------- null}
- -t 1.252 -s 1 -d 2 -p cbr -e 210 -c 2 -i 49 -a 2 -x {1.0 2.1 27 ------- null}
h -t 1.252 -s 1 -d 2 -p cbr -e 210 -c 2 -i 49 -a 2 -x {1.0 2.1 -1 ------- null}
+ -t 1.25499999999999 -s 1 -d 2 -p cbr -e 210 -c 2 -i 96 -a 2 -x {1.0 2.1 68 ------- null}
r -t 1.257 -s 1 -d 2 -p cbr -e 210 -c 2 -i 45 -a 2 -x {1.0 2.1 23 ------- null}
+ -t 1.25874999999999 -s 1 -d 2 -p cbr -e 210 -c 2 -i 97 -a 2 -x {1.0 2.1 69 ------- null}
d -t 1.25874999999999 -s 1 -d 2 -p cbr -e 210 -c 2 -i 97 -a 2 -x {1.0 2.1 69 ------- null}
+ -t 1.26249999999999 -s 1 -d 2 -p cbr -e 210 -c 2 -i 98 -a 2 -x {1.0 2.1 70 ------- null}
d -t 1.26249999999999 -s 1 -d 2 -p cbr -e 210 -c 2 -i 98 -a 2 -x {1.0 2.1 70 ------- null}
- -t 1.2652 -s 0 -d 2 -p tcp -e 1040 -c 1 -i 15 -a 1 -x {0.0 2.0 10 ------- null}
h -t 1.2652 -s 0 -d 2 -p tcp -e 1040 -c 1 -i 15 -a 1 -x {0.0 2.0 -1 ------- null}
+ -t 1.26624999999999 -s 1 -d 2 -p cbr -e 210 -c 2 -i 99 -a 2 -x {1.0 2.1 71 ------- null}
d -t 1.26624999999999 -s 1 -d 2 -p cbr -e 210 -c 2 -i 99 -a 2 -x {1.0 2.1 71 ------- null}
- -t 1.2688 -s 1 -d 2 -p cbr -e 210 -c 2 -i 57 -a 2 -x {1.0 2.1 32 ------- null}
h -t 1.2688 -s 1 -d 2 -p cbr -e 210 -c 2 -i 57 -a 2 -x {1.0 2.1 -1 ------- null}
+ -t 1.26999999999999 -s 1 -d 2 -p cbr -e 210 -c 2 -i 100 -a 2 -x {1.0 2.1 72 ------- null}
r -t 1.2702 -s 0 -d 2 -p tcp -e 1040 -c 1 -i 14 -a 1 -x {0.0 2.0 9 ------- null}
+ -t 1.2702 -s 2 -d 0 -p ack -e 40 -c 1 -i 101 -a 1 -x {2.0 0.0 9 ------- null}
- -t 1.2702 -s 2 -d 0 -p ack -e 40 -c 1 -i 101 -a 1 -x {2.0 0.0 9 ------- null}
h -t 1.2702 -s 2 -d 0 -p ack -e 40 -c 1 -i 101 -a 1 -x {2.0 0.0 -1 ------- null}
+ -t 1.27374999999999 -s 1 -d 2 -p cbr -e 210 -c 2 -i 102 -a 2 -x {1.0 2.1 73 ------- null}
d -t 1.27374999999999 -s 1 -d 2 -p cbr -e 210 -c 2 -i 102 -a 2 -x {1.0 2.1 73 ------- null}
r -t 1.2738 -s 1 -d 2 -p cbr -e 210 -c 2 -i 49 -a 2 -x {1.0 2.1 27 ------- null}
+ -t 1.27749999999999 -s 1 -d 2 -p cbr -e 210 -c 2 -i 103 -a 2 -x {1.0 2.1 74 ------- null}
d -t 1.27749999999999 -s 1 -d 2 -p cbr -e 210 -c 2 -i 103 -a 2 -x {1.0 2.1 74 ------- null}
r -t 1.2784 -s 2 -d 0 -p ack -e 40 -c 1 -i 101 -a 1 -x {2.0 0.0 9 ------- null}
+ -t 1.2784 -s 0 -d 2 -p tcp -e 1040 -c 1 -i 104 -a 1 -x {0.0 2.0 19 ------- null}
+ -t 1.2784 -s 0 -d 2 -p tcp -e 1040 -c 1 -i 105 -a 1 -x {0.0 2.0 20 ------- null}
d -t 1.2784 -s 0 -d 2 -p tcp -e 1040 -c 1 -i 105 -a 1 -x {0.0 2.0 20 ------- null}
+ -t 1.28124999999999 -s 1 -d 2 -p cbr -e 210 -c 2 -i 106 -a 2 -x {1.0 2.1 75 ------- null}
d -t 1.28124999999999 -s 1 -d 2 -p cbr -e 210 -c 2 -i 106 -a 2 -x {1.0 2.1 75 ------- null}
+ -t 1.28499999999999 -s 1 -d 2 -p cbr -e 210 -c 2 -i 107 -a 2 -x {1.0 2.1 76 ------- null}
d -t 1.28499999999999 -s 1 -d 2 -p cbr -e 210 -c 2 -i 107 -a 2 -x {1.0 2.1 76 ------- null}
- -t 1.2856 -s 1 -d 2 -p cbr -e 210 -c 2 -i 61 -a 2 -x {1.0 2.1 36 ------- null}
h -t 1.2856 -s 1 -d 2 -p cbr -e 210 -c 2 -i 61 -a 2 -x {1.0 2.1 -1 ------- null}
+ -t 1.28874999999999 -s 1 -d 2 -p cbr -e 210 -c 2 -i 108 -a 2 -x {1.0 2.1 77 ------- null}
r -t 1.2906 -s 1 -d 2 -p cbr -e 210 -c 2 -i 57 -a 2 -x {1.0 2.1 32 ------- null}
+ -t 1.29249999999999 -s 1 -d 2 -p cbr -e 210 -c 2 -i 109 -a 2 -x {1.0 2.1 78 ------- null}
d -t 1.29249999999999 -s 1 -d 2 -p cbr -e 210 -c 2 -i 109 -a 2 -x {1.0 2.1 78 ------- null}
+ -t 1.29624999999999 -s 1 -d 2 -p cbr -e 210 -c 2 -i 110 -a 2 -x {1.0 2.1 79 ------- null}
d -t 1.29624999999999 -s 1 -d 2 -p cbr -e 210 -c 2 -i 110 -a 2 -x {1.0 2.1 79 ------- null}
+ -t 1.29999999999999 -s 1 -d 2 -p cbr -e 210 -c 2 -i 111 -a 2 -x {1.0 2.1 80 ------- null}
d -t 1.29999999999999 -s 1 -d 2 -p cbr -e 210 -c 2 -i 111 -a 2 -x {1.0 2.1 80 ------- null}
- -t 1.3024 -s 1 -d 2 -p cbr -e 210 -c 2 -i 66 -a 2 -x {1.0 2.1 41 ------- null}
h -t 1.3024 -s 1 -d 2 -p cbr -e 210 -c 2 -i 66 -a 2 -x {1.0 2.1 -1 ------- null}
+ -t 1.30374999999999 -s 1 -d 2 -p cbr -e 210 -c 2 -i 112 -a 2 -x {1.0 2.1 81 ------- null}
r -t 1.3074 -s 1 -d 2 -p cbr -e 210 -c 2 -i 61 -a 2 -x {1.0 2.1 36 ------- null}
+ -t 1.30749999999999 -s 1 -d 2 -p cbr -e 210 -c 2 -i 113 -a 2 -x {1.0 2.1 82 ------- null}
d -t 1.30749999999999 -s 1 -d 2 -p cbr -e 210 -c 2 -i 113 -a 2 -x {1.0 2.1 82 ------- null}
+ -t 1.31124999999999 -s 1 -d 2 -p cbr -e 210 -c 2 -i 114 -a 2 -x {1.0 2.1 83 ------- null}
d -t 1.31124999999999 -s 1 -d 2 -p cbr -e 210 -c 2 -i 114 -a 2 -x {1.0 2.1 83 ------- null}
+ -t 1.31499999999999 -s 1 -d 2 -p cbr -e 210 -c 2 -i 115 -a 2 -x {1.0 2.1 84 ------- null}
d -t 1.31499999999999 -s 1 -d 2 -p cbr -e 210 -c 2 -i 115 -a 2 -x {1.0 2.1 84 ------- null}
+ -t 1.31874999999999 -s 1 -d 2 -p cbr -e 210 -c 2 -i 116 -a 2 -x {1.0 2.1 85 ------- null}
d -t 1.31874999999999 -s 1 -d 2 -p cbr -e 210 -c 2 -i 116 -a 2 -x {1.0 2.1 85 ------- null}
- -t 1.3192 -s 1 -d 2 -p cbr -e 210 -c 2 -i 70 -a 2 -x {1.0 2.1 45 ------- null}
h -t 1.3192 -s 1 -d 2 -p cbr -e 210 -c 2 -i 70 -a 2 -x {1.0 2.1 -1 ------- null}
+ -t 1.32249999999999 -s 1 -d 2 -p cbr -e 210 -c 2 -i 117 -a 2 -x {1.0 2.1 86 ------- null}
r -t 1.3242 -s 1 -d 2 -p cbr -e 210 -c 2 -i 66 -a 2 -x {1.0 2.1 41 ------- null}
+ -t 1.32624999999999 -s 1 -d 2 -p cbr -e 210 -c 2 -i 118 -a 2 -x {1.0 2.1 87 ------- null}
d -t 1.32624999999999 -s 1 -d 2 -p cbr -e 210 -c 2 -i 118 -a 2 -x {1.0 2.1 87 ------- null}
+ -t 1.32999999999999 -s 1 -d 2 -p cbr -e 210 -c 2 -i 119 -a 2 -x {1.0 2.1 88 ------- null}
d -t 1.32999999999999 -s 1 -d 2 -p cbr -e 210 -c 2 -i 119 -a 2 -x {1.0 2.1 88 ------- null}
+ -t 1.33374999999999 -s 1 -d 2 -p cbr -e 210 -c 2 -i 120 -a 2 -x {1.0 2.1 89 ------- null}
d -t 1.33374999999999 -s 1 -d 2 -p cbr -e 210 -c 2 -i 120 -a 2 -x {1.0 2.1 89 ------- null}
- -t 1.336 -s 1 -d 2 -p cbr -e 210 -c 2 -i 76 -a 2 -x {1.0 2.1 50 ------- null}
h -t 1.336 -s 1 -d 2 -p cbr -e 210 -c 2 -i 76 -a 2 -x {1.0 2.1 -1 ------- null}
+ -t 1.33749999999999 -s 1 -d 2 -p cbr -e 210 -c 2 -i 121 -a 2 -x {1.0 2.1 90 ------- null}
r -t 1.341 -s 1 -d 2 -p cbr -e 210 -c 2 -i 70 -a 2 -x {1.0 2.1 45 ------- null}
+ -t 1.34124999999999 -s 1 -d 2 -p cbr -e 210 -c 2 -i 122 -a 2 -x {1.0 2.1 91 ------- null}
d -t 1.34124999999999 -s 1 -d 2 -p cbr -e 210 -c 2 -i 122 -a 2 -x {1.0 2.1 91 ------- null}
+ -t 1.34499999999999 -s 1 -d 2 -p cbr -e 210 -c 2 -i 123 -a 2 -x {1.0 2.1 92 ------- null}
d -t 1.34499999999999 -s 1 -d 2 -p cbr -e 210 -c 2 -i 123 -a 2 -x {1.0 2.1 92 ------- null}
- -t 1.3484 -s 0 -d 2 -p tcp -e 1040 -c 1 -i 17 -a 1 -x {0.0 2.0 11 ------- null}
h -t 1.3484 -s 0 -d 2 -p tcp -e 1040 -c 1 -i 17 -a 1 -x {0.0 2.0 -1 ------- null}
+ -t 1.34874999999999 -s 1 -d 2 -p cbr -e 210 -c 2 -i 124 -a 2 -x {1.0 2.1 93 ------- null}
d -t 1.34874999999999 -s 1 -d 2 -p cbr -e 210 -c 2 -i 124 -a 2 -x {1.0 2.1 93 ------- null}
+ -t 1.35249999999999 -s 1 -d 2 -p cbr -e 210 -c 2 -i 125 -a 2 -x {1.0 2.1 94 ------- null}
d -t 1.35249999999999 -s 1 -d 2 -p cbr -e 210 -c 2 -i 125 -a 2 -x {1.0 2.1 94 ------- null}
- -t 1.3528 -s 1 -d 2 -p cbr -e 210 -c 2 -i 82 -a 2 -x {1.0 2.1 54 ------- null}
h -t 1.3528 -s 1 -d 2 -p cbr -e 210 -c 2 -i 82 -a 2 -x {1.0 2.1 -1 ------- null}
r -t 1.3534 -s 0 -d 2 -p tcp -e 1040 -c 1 -i 15 -a 1 -x {0.0 2.0 10 ------- null}
+ -t 1.3534 -s 2 -d 0 -p ack -e 40 -c 1 -i 126 -a 1 -x {2.0 0.0 10 ------- null}
- -t 1.3534 -s 2 -d 0 -p ack -e 40 -c 1 -i 126 -a 1 -x {2.0 0.0 10 ------- null}
h -t 1.3534 -s 2 -d 0 -p ack -e 40 -c 1 -i 126 -a 1 -x {2.0 0.0 -1 ------- null}
+ -t 1.35624999999999 -s 1 -d 2 -p cbr -e 210 -c 2 -i 127 -a 2 -x {1.0 2.1 95 ------- null}
r -t 1.3578 -s 1 -d 2 -p cbr -e 210 -c 2 -i 76 -a 2 -x {1.0 2.1 50 ------- null}
+ -t 1.35999999999999 -s 1 -d 2 -p cbr -e 210 -c 2 -i 128 -a 2 -x {1.0 2.1 96 ------- null}
d -t 1.35999999999999 -s 1 -d 2 -p cbr -e 210 -c 2 -i 128 -a 2 -x {1.0 2.1 96 ------- null}
r -t 1.3616 -s 2 -d 0 -p ack -e 40 -c 1 -i 126 -a 1 -x {2.0 0.0 10 ------- null}
+ -t 1.3616 -s 0 -d 2 -p tcp -e 1040 -c 1 -i 129 -a 1 -x {0.0 2.0 21 ------- null}
+ -t 1.3616 -s 0 -d 2 -p tcp -e 1040 -c 1 -i 130 -a 1 -x {0.0 2.0 22 ------- null}
d -t 1.3616 -s 0 -d 2 -p tcp -e 1040 -c 1 -i 130 -a 1 -x {0.0 2.0 22 ------- null}
+ -t 1.36374999999999 -s 1 -d 2 -p cbr -e 210 -c 2 -i 131 -a 2 -x {1.0 2.1 97 ------- null}
d -t 1.36374999999999 -s 1 -d 2 -p cbr -e 210 -c 2 -i 131 -a 2 -x {1.0 2.1 97 ------- null}
+ -t 1.36749999999999 -s 1 -d 2 -p cbr -e 210 -c 2 -i 132 -a 2 -x {1.0 2.1 98 ------- null}
d -t 1.36749999999999 -s 1 -d 2 -p cbr -e 210 -c 2 -i 132 -a 2 -x {1.0 2.1 98 ------- null}
- -t 1.3696 -s 1 -d 2 -p cbr -e 210 -c 2 -i 87 -a 2 -x {1.0 2.1 59 ------- null}
h -t 1.3696 -s 1 -d 2 -p cbr -e 210 -c 2 -i 87 -a 2 -x {1.0 2.1 -1 ------- null}
+ -t 1.37124999999999 -s 1 -d 2 -p cbr -e 210 -c 2 -i 133 -a 2 -x {1.0 2.1 99 ------- null}
r -t 1.3746 -s 1 -d 2 -p cbr -e 210 -c 2 -i 82 -a 2 -x {1.0 2.1 54 ------- null}
+ -t 1.37499999999999 -s 1 -d 2 -p cbr -e 210 -c 2 -i 134 -a 2 -x {1.0 2.1 100 ------- null}
d -t 1.37499999999999 -s 1 -d 2 -p cbr -e 210 -c 2 -i 134 -a 2 -x {1.0 2.1 100 ------- null}
+ -t 1.37874999999999 -s 1 -d 2 -p cbr -e 210 -c 2 -i 135 -a 2 -x {1.0 2.1 101 ------- null}
d -t 1.37874999999999 -s 1 -d 2 -p cbr -e 210 -c 2 -i 135 -a 2 -x {1.0 2.1 101 ------- null}
+ -t 1.38249999999999 -s 1 -d 2 -p cbr -e 210 -c 2 -i 136 -a 2 -x {1.0 2.1 102 ------- null}
d -t 1.38249999999999 -s 1 -d 2 -p cbr -e 210 -c 2 -i 136 -a 2 -x {1.0 2.1 102 ------- null}
+ -t 1.38624999999999 -s 1 -d 2 -p cbr -e 210 -c 2 -i 137 -a 2 -x {1.0 2.1 103 ------- null}
d -t 1.38624999999999 -s 1 -d 2 -p cbr -e 210 -c 2 -i 137 -a 2 -x {1.0 2.1 103 ------- null}
- -t 1.3864 -s 1 -d 2 -p cbr -e 210 -c 2 -i 91 -a 2 -x {1.0 2.1 63 ------- null}
h -t 1.3864 -s 1 -d 2 -p cbr -e 210 -c 2 -i 91 -a 2 -x {1.0 2.1 -1 ------- null}
+ -t 1.38999999999999 -s 1 -d 2 -p cbr -e 210 -c 2 -i 138 -a 2 -x {1.0 2.1 104 ------- null}
r -t 1.3914 -s 1 -d 2 -p cbr -e 210 -c 2 -i 87 -a 2 -x {1.0 2.1 59 ------- null}
+ -t 1.39374999999999 -s 1 -d 2 -p cbr -e 210 -c 2 -i 139 -a 2 -x {1.0 2.1 105 ------- null}
d -t 1.39374999999999 -s 1 -d 2 -p cbr -e 210 -c 2 -i 139 -a 2 -x {1.0 2.1 105 ------- null}