+ 0.5 0 2 tcp 40 ------- 1 0.0 2.0 0 0
- 0.5 0 2 tcp 40 ------- 1 0.0 2.0 0 0
r 0.5082 0 2 tcp 40 ------- 1 0.0 2.0 0 0
+ 0.5082 2 0 ack 40 ------- 1 2.0 0.0 0 1
- 0.5082 2 0 ack 40 ------- 1 2.0 0.0 0 1
r 0.5164 2 0 ack 40 ------- 1 2.0 0.0 0 1
+ 0.5164 0 2 tcp 1040 ------- 1 0.0 2.0 1 2
- 0.5164 0 2 tcp 1040 ------- 1 0.0 2.0 1 2
+ 0.5164 0 2 tcp 1040 ------- 1 0.0 2.0 2 3
- 0.5996 0 2 tcp 1040 ------- 1 0.0 2.0 2 3
r 0.6046 0 2 tcp 1040 ------- 1 0.0 2.0 1 2
+ 0.6046 2 0 ack 40 ------- 1 2.0 0.0 1 4
- 0.6046 2 0 ack 40 ------- 1 2.0 0.0 1 4
r 0.6128 2 0 ack 40 ------- 1 2.0 0.0 1 4
+ 0.6128 0 2 tcp 1040 ------- 1 0.0 2.0 3 5
+ 0.6128 0 2 tcp 1040 ------- 1 0.0 2.0 4 6
- 0.6828 0 2 tcp 1040 ------- 1 0.0 2.0 3 5
r 0.6878 0 2 tcp 1040 ------- 1 0.0 2.0 2 3
+ 0.6878 2 0 ack 40 ------- 1 2.0 0.0 2 7
- 0.6878 2 0 ack 40 ------- 1 2.0 0.0 2 7
r 0.696 2 0 ack 40 ------- 1 2.0 0.0 2 7
+ 0.696 0 2 tcp 1040 ------- 1 0.0 2.0 5 8
+ 0.696 0 2 tcp 1040 ------- 1 0.0 2.0 6 9
- 0.766 0 2 tcp 1040 ------- 1 0.0 2.0 4 6
r 0.771 0 2 tcp 1040 ------- 1 0.0 2.0 3 5
+ 0.771 2 0 ack 40 ------- 1 2.0 0.0 3 10
- 0.771 2 0 ack 40 ------- 1 2.0 0.0 3 10
r 0.7792 2 0 ack 40 ------- 1 2.0 0.0 3 10
+ 0.7792 0 2 tcp 1040 ------- 1 0.0 2.0 7 11
+ 0.7792 0 2 tcp 1040 ------- 1 0.0 2.0 8 12
- 0.8492 0 2 tcp 1040 ------- 1 0.0 2.0 5 8
r 0.8542 0 2 tcp 1040 ------- 1 0.0 2.0 4 6
+ 0.8542 2 0 ack 40 ------- 1 2.0 0.0 4 13
- 0.8542 2 0 ack 40 ------- 1 2.0 0.0 4 13
r 0.8624 2 0 ack 40 ------- 1 2.0 0.0 4 13
+ 0.8624 0 2 tcp 1040 ------- 1 0.0 2.0 9 14
+ 0.8624 0 2 tcp 1040 ------- 1 0.0 2.0 10 15
- 0.9324 0 2 tcp 1040 ------- 1 0.0 2.0 6 9
r 0.9374 0 2 tcp 1040 ------- 1 0.0 2.0 5 8
+ 0.9374 2 0 ack 40 ------- 1 2.0 0.0 5 16
- 0.9374 2 0 ack 40 ------- 1 2.0 0.0 5 16
r 0.9456 2 0 ack 40 ------- 1 2.0 0.0 5 16
+ 0.9456 0 2 tcp 1040 ------- 1 0.0 2.0 11 17
+ 0.9456 0 2 tcp 1040 ------- 1 0.0 2.0 12 18
+ 1 1 2 cbr 210 ------- 2 1.0 2.1 0 19
- 1 1 2 cbr 210 ------- 2 1.0 2.1 0 19
+ 1.00375 1 2 cbr 210 ------- 2 1.0 2.1 1 20
+ 1.0075 1 2 cbr 210 ------- 2 1.0 2.1 2 21
+ 1.01125 1 2 cbr 210 ------- 2 1.0 2.1 3 22
+ 1.015 1 2 cbr 210 ------- 2 1.0 2.1 4 23
- 1.0156 0 2 tcp 1040 ------- 1 0.0 2.0 7 11
- 1.0168 1 2 cbr 210 ------- 2 1.0 2.1 1 20
+ 1.01875 1 2 cbr 210 ------- 2 1.0 2.1 5 24
r 1.0206 0 2 tcp 1040 ------- 1 0.0 2.0 6 9
+ 1.0206 2 0 ack 40 ------- 1 2.0 0.0 6 25
- 1.0206 2 0 ack 40 ------- 1 2.0 0.0 6 25
r 1.0218 1 2 cbr 210 ------- 2 1.0 2.1 0 19
+ 1.0225 1 2 cbr 210 ------- 2 1.0 2.1 6 26
+ 1.02625 1 2 cbr 210 ------- 2 1.0 2.1 7 27
r 1.0288 2 0 ack 40 ------- 1 2.0 0.0 6 25
+ 1.0288 0 2 tcp 1040 ------- 1 0.0 2.0 13 28
+ 1.0288 0 2 tcp 1040 ------- 1 0.0 2.0 14 29
+ 1.03 1 2 cbr 210 ------- 2 1.0 2.1 8 30
- 1.0336 1 2 cbr 210 ------- 2 1.0 2.1 2 21
+ 1.03375 1 2 cbr 210 ------- 2 1.0 2.1 9 31
+ 1.0375 1 2 cbr 210 ------- 2 1.0 2.1 10 32
r 1.0386 1 2 cbr 210 ------- 2 1.0 2.1 1 20
+ 1.04125 1 2 cbr 210 ------- 2 1.0 2.1 11 33
+ 1.045 1 2 cbr 210 ------- 2 1.0 2.1 12 34
d 1.045 1 2 cbr 210 ------- 2 1.0 2.1 12 34
+ 1.04875 1 2 cbr 210 ------- 2 1.0 2.1 13 35
d 1.04875 1 2 cbr 210 ------- 2 1.0 2.1 13 35
- 1.0504 1 2 cbr 210 ------- 2 1.0 2.1 3 22
+ 1.0525 1 2 cbr 210 ------- 2 1.0 2.1 14 36
r 1.0554 1 2 cbr 210 ------- 2 1.0 2.1 2 21
+ 1.05625 1 2 cbr 210 ------- 2 1.0 2.1 15 37
d 1.05625 1 2 cbr 210 ------- 2 1.0 2.1 15 37
+ 1.06 1 2 cbr 210 ------- 2 1.0 2.1 16 38
d 1.06 1 2 cbr 210 ------- 2 1.0 2.1 16 38
+ 1.06375 1 2 cbr 210 ------- 2 1.0 2.1 17 39
d 1.06375 1 2 cbr 210 ------- 2 1.0 2.1 17 39
- 1.0672 1 2 cbr 210 ------- 2 1.0 2.1 4 23
+ 1.0675 1 2 cbr 210 ------- 2 1.0 2.1 18 40
+ 1.07125 1 2 cbr 210 ------- 2 1.0 2.1 19 41
d 1.07125 1 2 cbr 210 ------- 2 1.0 2.1 19 41
r 1.0722 1 2 cbr 210 ------- 2 1.0 2.1 3 22
+ 1.075 1 2 cbr 210 ------- 2 1.0 2.1 20 42
d 1.075 1 2 cbr 210 ------- 2 1.0 2.1 20 42
+ 1.07875 1 2 cbr 210 ------- 2 1.0 2.1 21 43
d 1.07875 1 2 cbr 210 ------- 2 1.0 2.1 21 43
+ 1.0825 1 2 cbr 210 ------- 2 1.0 2.1 22 44
d 1.0825 1 2 cbr 210 ------- 2 1.0 2.1 22 44
- 1.084 1 2 cbr 210 ------- 2 1.0 2.1 5 24
+ 1.08625 1 2 cbr 210 ------- 2 1.0 2.1 23 45
r 1.089 1 2 cbr 210 ------- 2 1.0 2.1 4 23
+ 1.09 1 2 cbr 210 ------- 2 1.0 2.1 24 46
d 1.09 1 2 cbr 210 ------- 2 1.0 2.1 24 46
+ 1.09375 1 2 cbr 210 ------- 2 1.0 2.1 25 47
d 1.09375 1 2 cbr 210 ------- 2 1.0 2.1 25 47
+ 1.0975 1 2 cbr 210 ------- 2 1.0 2.1 26 48
d 1.0975 1 2 cbr 210 ------- 2 1.0 2.1 26 48
- 1.0988 0 2 tcp 1040 ------- 1 0.0 2.0 8 12
- 1.1008 1 2 cbr 210 ------- 2 1.0 2.1 6 26
+ 1.10125 1 2 cbr 210 ------- 2 1.0 2.1 27 49
r 1.1038 0 2 tcp 1040 ------- 1 0.0 2.0 7 11
+ 1.1038 2 0 ack 40 ------- 1 2.0 0.0 7 50
- 1.1038 2 0 ack 40 ------- 1 2.0 0.0 7 50
+ 1.105 1 2 cbr 210 ------- 2 1.0 2.1 28 51
d 1.105 1 2 cbr 210 ------- 2 1.0 2.1 28 51
r 1.1058 1 2 cbr 210 ------- 2 1.0 2.1 5 24
+ 1.10875 1 2 cbr 210 ------- 2 1.0 2.1 29 52
d 1.10875 1 2 cbr 210 ------- 2 1.0 2.1 29 52
r 1.112 2 0 ack 40 ------- 1 2.0 0.0 7 50
+ 1.112 0 2 tcp 1040 ------- 1 0.0 2.0 15 53
+ 1.112 0 2 tcp 1040 ------- 1 0.0 2.0 16 54
+ 1.1125 1 2 cbr 210 ------- 2 1.0 2.1 30 55
d 1.1125 1 2 cbr 210 ------- 2 1.0 2.1 30 55
+ 1.11625 1 2 cbr 210 ------- 2 1.0 2.1 31 56
d 1.11625 1 2 cbr 210 ------- 2 1.0 2.1 31 56
- 1.1176 1 2 cbr 210 ------- 2 1.0 2.1 7 27
+ 1.12 1 2 cbr 210 ------- 2 1.0 2.1 32 57
r 1.1226 1 2 cbr 210 ------- 2 1.0 2.1 6 26
+ 1.12375 1 2 cbr 210 ------- 2 1.0 2.1 33 58
d 1.12375 1 2 cbr 210 ------- 2 1.0 2.1 33 58
+ 1.1275 1 2 cbr 210 ------- 2 1.0 2.1 34 59
d 1.1275 1 2 cbr 210 ------- 2 1.0 2.1 34 59
+ 1.13125 1 2 cbr 210 ------- 2 1.0 2.1 35 60
d 1.13125 1 2 cbr 210 ------- 2 1.0 2.1 35 60
- 1.1344 1 2 cbr 210 ------- 2 1.0 2.1 8 30
+ 1.135 1 2 cbr 210 ------- 2 1.0 2.1 36 61
+ 1.13875 1 2 cbr 210 ------- 2 1.0 2.1 37 62
d 1.13875 1 2 cbr 210 ------- 2 1.0 2.1 37 62
r 1.1394 1 2 cbr 210 ------- 2 1.0 2.1 7 27
+ 1.1425 1 2 cbr 210 ------- 2 1.0 2.1 38 63
d 1.1425 1 2 cbr 210 ------- 2 1.0 2.1 38 63
+ 1.14625 1 2 cbr 210 ------- 2 1.0 2.1 39 64
d 1.14625 1 2 cbr 210 ------- 2 1.0 2.1 39 64
+ 1.15 1 2 cbr 210 ------- 2 1.0 2.1 40 65
d 1.15 1 2 cbr 210 ------- 2 1.0 2.1 40 65
- 1.1512 1 2 cbr 210 ------- 2 1.0 2.1 9 31
+ 1.15375 1 2 cbr 210 ------- 2 1.0 2.1 41 66
r 1.1562 1 2 cbr 210 ------- 2 1.0 2.1 8 30
+ 1.1575 1 2 cbr 210 ------- 2 1.0 2.1 42 67
d 1.1575 1 2 cbr 210 ------- 2 1.0 2.1 42 67
+ 1.16125 1 2 cbr 210 ------- 2 1.0 2.1 43 68
d 1.16125 1 2 cbr 210 ------- 2 1.0 2.1 43 68
+ 1.165 1 2 cbr 210 ------- 2 1.0 2.1 44 69
d 1.165 1 2 cbr 210 ------- 2 1.0 2.1 44 69
- 1.168 1 2 cbr 210 ------- 2 1.0 2.1 10 32
+ 1.16875 1 2 cbr 210 ------- 2 1.0 2.1 45 70
+ 1.1725 1 2 cbr 210 ------- 2 1.0 2.1 46 71
d 1.1725 1 2 cbr 210 ------- 2 1.0 2.1 46 71
r 1.173 1 2 cbr 210 ------- 2 1.0 2.1 9 31
+ 1.17625 1 2 cbr 210 ------- 2 1.0 2.1 47 72
d 1.17625 1 2 cbr 210 ------- 2 1.0 2.1 47 72
+ 1.18 1 2 cbr 210 ------- 2 1.0 2.1 48 73
d 1.18 1 2 cbr 210 ------- 2 1.0 2.1 48 73
- 1.182 0 2 tcp 1040 ------- 1 0.0 2.0 9 14
+ 1.18375 1 2 cbr 210 ------- 2 1.0 2.1 49 74
d 1.18375 1 2 cbr 210 ------- 2 1.0 2.1 49 74
- 1.1848 1 2 cbr 210 ------- 2 1.0 2.1 11 33
r 1.187 0 2 tcp 1040 ------- 1 0.0 2.0 8 12
+ 1.187 2 0 ack 40 ------- 1 2.0 0.0 8 75
- 1.187 2 0 ack 40 ------- 1 2.0 0.0 8 75
+ 1.1875 1 2 cbr 210 ------- 2 1.0 2.1 50 76
r 1.1898 1 2 cbr 210 ------- 2 1.0 2.1 10 32
+ 1.19125 1 2 cbr 210 ------- 2 1.0 2.1 51 77
d 1.19125 1 2 cbr 210 ------- 2 1.0 2.1 51 77
+ 1.195 1 2 cbr 210 ------- 2 1.0 2.1 52 78
d 1.195 1 2 cbr 210 ------- 2 1.0 2.1 52 78
r 1.1952 2 0 ack 40 ------- 1 2.0 0.0 8 75
+ 1.1952 0 2 tcp 1040 ------- 1 0.0 2.0 17 79
+ 1.1952 0 2 tcp 1040 ------- 1 0.0 2.0 18 80
+ 1.19875 1 2 cbr 210 ------- 2 1.0 2.1 53 81
d 1.19875 1 2 cbr 210 ------- 2 1.0 2.1 53 81
- 1.2016 1 2 cbr 210 ------- 2 1.0 2.1 14 36
+ 1.2025 1 2 cbr 210 ------- 2 1.0 2.1 54 82
+ 1.20625 1 2 cbr 210 ------- 2 1.0 2.1 55 83
d 1.20625 1 2 cbr 210 ------- 2 1.0 2.1 55 83
r 1.2066 1 2 cbr 210 ------- 2 1.0 2.1 11 33
+ 1.21 1 2 cbr 210 ------- 2 1.0 2.1 56 84
d 1.21 1 2 cbr 210 ------- 2 1.0 2.1 56 84
+ 1.21375 1 2 cbr 210 ------- 2 1.0 2.1 57 85
d 1.21375 1 2 cbr 210 ------- 2 1.0 2.1 57 85
+ 1.2175 1 2 cbr 210 ------- 2 1.0 2.1 58 86
d 1.2175 1 2 cbr 210 ------- 2 1.0 2.1 58 86
- 1.2184 1 2 cbr 210 ------- 2 1.0 2.1 18 40
+ 1.22125 1 2 cbr 210 ------- 2 1.0 2.1 59 87
r 1.2234 1 2 cbr 210 ------- 2 1.0 2.1 14 36
+ 1.225 1 2 cbr 210 ------- 2 1.0 2.1 60 88
d 1.225 1 2 cbr 210 ------- 2 1.0 2.1 60 88
+ 1.22875 1 2 cbr 210 ------- 2 1.0 2.1 61 89
d 1.22875 1 2 cbr 210 ------- 2 1.0 2.1 61 89
+ 1.2325 1 2 cbr 210 ------- 2 1.0 2.1 62 90
d 1.2325 1 2 cbr 210 ------- 2 1.0 2.1 62 90
- 1.2352 1 2 cbr 210 ------- 2 1.0 2.1 23 45
+ 1.23625 1 2 cbr 210 ------- 2 1.0 2.1 63 91
+ 1.24 1 2 cbr 210 ------- 2 1.0 2.1 64 92
d 1.24 1 2 cbr 210 ------- 2 1.0 2.1 64 92
r 1.2402 1 2 cbr 210 ------- 2 1.0 2.1 18 40
+ 1.24375 1 2 cbr 210 ------- 2 1.0 2.1 65 93
d 1.24375 1 2 cbr 210 ------- 2 1.0 2.1 65 93
+ 1.2475 1 2 cbr 210 ------- 2 1.0 2.1 66 94
d 1.2475 1 2 cbr 210 ------- 2 1.0 2.1 66 94
+ 1.25125 1 2 cbr 210 ------- 2 1.0 2.1 67 95
d 1.25125 1 2 cbr 210 ------- 2 1.0 2.1 67 95
- 1.252 1 2 cbr 210 ------- 2 1.0 2.1 27 49
+ 1.255 1 2 cbr 210 ------- 2 1.0 2.1 68 96
r 1.257 1 2 cbr 210 ------- 2 1.0 2.1 23 45
+ 1.25875 1 2 cbr 210 ------- 2 1.0 2.1 69 97
d 1.25875 1 2 cbr 210 ------- 2 1.0 2.1 69 97
+ 1.2625 1 2 cbr 210 ------- 2 1.0 2.1 70 98
d 1.2625 1 2 cbr 210 ------- 2 1.0 2.1 70 98
- 1.2652 0 2 tcp 1040 ------- 1 0.0 2.0 10 15
+ 1.26625 1 2 cbr 210 ------- 2 1.0 2.1 71 99
d 1.26625 1 2 cbr 210 ------- 2 1.0 2.1 71 99
- 1.2688 1 2 cbr 210 ------- 2 1.0 2.1 32 57
+ 1.27 1 2 cbr 210 ------- 2 1.0 2.1 72 100
r 1.2702 0 2 tcp 1040 ------- 1 0.0 2.0 9 14
+ 1.2702 2 0 ack 40 ------- 1 2.0 0.0 9 101
- 1.2702 2 0 ack 40 ------- 1 2.0 0.0 9 101
+ 1.27375 1 2 cbr 210 ------- 2 1.0 2.1 73 102
d 1.27375 1 2 cbr 210 ------- 2 1.0 2.1 73 102
r 1.2738 1 2 cbr 210 ------- 2 1.0 2.1 27 49
+ 1.2775 1 2 cbr 210 ------- 2 1.0 2.1 74 103
d 1.2775 1 2 cbr 210 ------- 2 1.0 2.1 74 103
r 1.2784 2 0 ack 40 ------- 1 2.0 0.0 9 101
+ 1.2784 0 2 tcp 1040 ------- 1 0.0 2.0 19 104
+ 1.2784 0 2 tcp 1040 ------- 1 0.0 2.0 20 105
d 1.2784 0 2 tcp 1040 ------- 1 0.0 2.0 20 105
+ 1.28125 1 2 cbr 210 ------- 2 1.0 2.1 75 106
d 1.28125 1 2 cbr 210 ------- 2 1.0 2.1 75 106
+ 1.285 1 2 cbr 210 ------- 2 1.0 2.1 76 107
d 1.285 1 2 cbr 210 ------- 2 1.0 2.1 76 107
- 1.2856 1 2 cbr 210 ------- 2 1.0 2.1 36 61
+ 1.28875 1 2 cbr 210 ------- 2 1.0 2.1 77 108
r 1.2906 1 2 cbr 210 ------- 2 1.0 2.1 32 57
+ 1.2925 1 2 cbr 210 ------- 2 1.0 2.1 78 109
d 1.2925 1 2 cbr 210 ------- 2 1.0 2.1 78 109
+ 1.29625 1 2 cbr 210 ------- 2 1.0 2.1 79 110
d 1.29625 1 2 cbr 210 ------- 2 1.0 2.1 79 110
+ 1.3 1 2 cbr 210 ------- 2 1.0 2.1 80 111
d 1.3 1 2 cbr 210 ------- 2 1.0 2.1 80 111
- 1.3024 1 2 cbr 210 ------- 2 1.0 2.1 41 66
+ 1.30375 1 2 cbr 210 ------- 2 1.0 2.1 81 112
r 1.3074 1 2 cbr 210 ------- 2 1.0 2.1 36 61
+ 1.3075 1 2 cbr 210 ------- 2 1.0 2.1 82 113
d 1.3075 1 2 cbr 210 ------- 2 1.0 2.1 82 113
+ 1.31125 1 2 cbr 210 ------- 2 1.0 2.1 83 114
d 1.31125 1 2 cbr 210 ------- 2 1.0 2.1 83 114
+ 1.315 1 2 cbr 210 ------- 2 1.0 2.1 84 115
d 1.315 1 2 cbr 210 ------- 2 1.0 2.1 84 115
+ 1.31875 1 2 cbr 210 ------- 2 1.0 2.1 85 116
d 1.31875 1 2 cbr 210 ------- 2 1.0 2.1 85 116
- 1.3192 1 2 cbr 210 ------- 2 1.0 2.1 45 70
+ 1.3225 1 2 cbr 210 ------- 2 1.0 2.1 86 117
r 1.3242 1 2 cbr 210 ------- 2 1.0 2.1 41 66
+ 1.32625 1 2 cbr 210 ------- 2 1.0 2.1 87 118
d 1.32625 1 2 cbr 210 ------- 2 1.0 2.1 87 118
+ 1.33 1 2 cbr 210 ------- 2 1.0 2.1 88 119
d 1.33 1 2 cbr 210 ------- 2 1.0 2.1 88 119
+ 1.33375 1 2 cbr 210 ------- 2 1.0 2.1 89 120
d 1.33375 1 2 cbr 210 ------- 2 1.0 2.1 89 120
- 1.336 1 2 cbr 210 ------- 2 1.0 2.1 50 76
+ 1.3375 1 2 cbr 210 ------- 2 1.0 2.1 90 121
r 1.341 1 2 cbr 210 ------- 2 1.0 2.1 45 70
+ 1.34125 1 2 cbr 210 ------- 2 1.0 2.1 91 122
d 1.34125 1 2 cbr 210 ------- 2 1.0 2.1 91 122
+ 1.345 1 2 cbr 210 ------- 2 1.0 2.1 92 123
d 1.345 1 2 cbr 210 ------- 2 1.0 2.1 92 123
- 1.3484 0 2 tcp 1040 ------- 1 0.0 2.0 11 17
+ 1.34875 1 2 cbr 210 ------- 2 1.0 2.1 93 124
d 1.34875 1 2 cbr 210 ------- 2 1.0 2.1 93 124
+ 1.3525 1 2 cbr 210 ------- 2 1.0 2.1 94 125
d 1.3525 1 2 cbr 210 ------- 2 1.0 2.1 94 125
- 1.3528 1 2 cbr 210 ------- 2 1.0 2.1 54 82
r 1.3534 0 2 tcp 1040 ------- 1 0.0 2.0 10 15
+ 1.3534 2 0 ack 40 ------- 1 2.0 0.0 10 126
- 1.3534 2 0 ack 40 ------- 1 2.0 0.0 10 126
+ 1.35625 1 2 cbr 210 ------- 2 1.0 2.1 95 127
r 1.3578 1 2 cbr 210 ------- 2 1.0 2.1 50 76
+ 1.36 1 2 cbr 210 ------- 2 1.0 2.1 96 128
d 1.36 1 2 cbr 210 ------- 2 1.0 2.1 96 128
r 1.3616 2 0 ack 40 ------- 1 2.0 0.0 10 126
+ 1.3616 0 2 tcp 1040 ------- 1 0.0 2.0 21 129
+ 1.3616 0 2 tcp 1040 ------- 1 0.0 2.0 22 130
d 1.3616 0 2 tcp 1040 ------- 1 0.0 2.0 22 130
+ 1.36375 1 2 cbr 210 ------- 2 1.0 2.1 97 131
d 1.36375 1 2 cbr 210 ------- 2 1.0 2.1 97 131
+ 1.3675 1 2 cbr 210 ------- 2 1.0 2.1 98 132
d 1.3675 1 2 cbr 210 ------- 2 1.0 2.1 98 132
- 1.3696 1 2 cbr 210 ------- 2 1.0 2.1 59 87
+ 1.37125 1 2 cbr 210 ------- 2 1.0 2.1 99 133
r 1.3746 1 2 cbr 210 ------- 2 1.0 2.1 54 82
+ 1.375 1 2 cbr 210 ------- 2 1.0 2.1 100 134
d 1.375 1 2 cbr 210 ------- 2 1.0 2.1 100 134
+ 1.37875 1 2 cbr 210 ------- 2 1.0 2.1 101 135
d 1.37875 1 2 cbr 210 ------- 2 1.0 2.1 101 135
+ 1.3825 1 2 cbr 210 ------- 2 1.0 2.1 102 136
d 1.3825 1 2 cbr 210 ------- 2 1.0 2.1 102 136
+ 1.38625 1 2 cbr 210 ------- 2 1.0 2.1 103 137
d 1.38625 1 2 cbr 210 ------- 2 1.0 2.1 103 137
- 1.3864 1 2 cbr 210 ------- 2 1.0 2.1 63 91
+ 1.39 1 2 cbr 210 ------- 2 1.0 2.1 104 138
r 1.3914 1 2 cbr 210 ------- 2 1.0 2.1 59 87
+ 1.39375 1 2 cbr 210 ------- 2 1.0 2.1 105 139
d 1.39375 1 2 cbr 210 ------- 2 1.0 2.1 105 139
+ 1.3975 1 2 cbr 210 ------- 2 1.0 2.1 106 140
d 1.3975 1 2 cbr 210 ------- 2 1.0 2.1 106 140
+ 1.40125 1 2 cbr 210 ------- 2 1.0 2.1 107 141
d 1.40125 1 2 cbr 210 ------- 2 1.0 2.1 107 141
- 1.4032 1 2 cbr 210 ------- 2 1.0 2.1 68 96
+ 1.405 1 2 cbr 210 ------- 2 1.0 2.1 108 142
r 1.4082 1 2 cbr 210 ------- 2 1.0 2.1 63 91
+ 1.40875 1 2 cbr 210 ------- 2 1.0 2.1 109 143
d 1.40875 1 2 cbr 210 ------- 2 1.0 2.1 109 143
+ 1.4125 1 2 cbr 210 ------- 2 1.0 2.1 110 144
d 1.4125 1 2 cbr 210 ------- 2 1.0 2.1 110 144
+ 1.41625 1 2 cbr 210 ------- 2 1.0 2.1 111 145
d 1.41625 1 2 cbr 210 ------- 2 1.0 2.1 111 145
+ 1.42 1 2 cbr 210 ------- 2 1.0 2.1 112 146
d 1.42 1 2 cbr 210 ------- 2 1.0 2.1 112 146
- 1.42 1 2 cbr 210 ------- 2 1.0 2.1 72 100
+ 1.42375 1 2 cbr 210 ------- 2 1.0 2.1 113 147
r 1.425 1 2 cbr 210 ------- 2 1.0 2.1 68 96
+ 1.4275 1 2 cbr 210 ------- 2 1.0 2.1 114 148
d 1.4275 1 2 cbr 210 ------- 2 1.0 2.1 114 148
+ 1.43125 1 2 cbr 210 ------- 2 1.0 2.1 115 149
d 1.43125 1 2 cbr 210 ------- 2 1.0 2.1 115 149
- 1.4316 0 2 tcp 1040 ------- 1 0.0 2.0 12 18
+ 1.435 1 2 cbr 210 ------- 2 1.0 2.1 116 150
d 1.435 1 2 cbr 210 ------- 2 1.0 2.1 116 150
r 1.4366 0 2 tcp 1040 ------- 1 0.0 2.0 11 17
+ 1.4366 2 0 ack 40 ------- 1 2.0 0.0 11 151
- 1.4366 2 0 ack 40 ------- 1 2.0 0.0 11 151
- 1.4368 1 2 cbr 210 ------- 2 1.0 2.1 77 108
+ 1.43875 1 2 cbr 210 ------- 2 1.0 2.1 117 152
r 1.4418 1 2 cbr 210 ------- 2 1.0 2.1 72 100
+ 1.4425 1 2 cbr 210 ------- 2 1.0 2.1 118 153
d 1.4425 1 2 cbr 210 ------- 2 1.0 2.1 118 153
r 1.4448 2 0 ack 40 ------- 1 2.0 0.0 11 151
+ 1.4448 0 2 tcp 1040 ------- 1 0.0 2.0 23 154
+ 1.4448 0 2 tcp 1040 ------- 1 0.0 2.0 24 155
d 1.4448 0 2 tcp 1040 ------- 1 0.0 2.0 24 155
+ 1.44625 1 2 cbr 210 ------- 2 1.0 2.1 119 156
d 1.44625 1 2 cbr 210 ------- 2 1.0 2.1 119 156
+ 1.45 1 2 cbr 210 ------- 2 1.0 2.1 120 157
d 1.45 1 2 cbr 210 ------- 2 1.0 2.1 120 157
- 1.4536 1 2 cbr 210 ------- 2 1.0 2.1 81 112
+ 1.45375 1 2 cbr 210 ------- 2 1.0 2.1 121 158
+ 1.4575 1 2 cbr 210 ------- 2 1.0 2.1 122 159
d 1.4575 1 2 cbr 210 ------- 2 1.0 2.1 122 159
r 1.4586 1 2 cbr 210 ------- 2 1.0 2.1 77 108
+ 1.46125 1 2 cbr 210 ------- 2 1.0 2.1 123 160
d 1.46125 1 2 cbr 210 ------- 2 1.0 2.1 123 160
+ 1.465 1 2 cbr 210 ------- 2 1.0 2.1 124 161
d 1.465 1 2 cbr 210 ------- 2 1.0 2.1 124 161
+ 1.46875 1 2 cbr 210 ------- 2 1.0 2.1 125 162
d 1.46875 1 2 cbr 210 ------- 2 1.0 2.1 125 162
- 1.4704 1 2 cbr 210 ------- 2 1.0 2.1 86 117
+ 1.4725 1 2 cbr 210 ------- 2 1.0 2.1 126 163
r 1.4754 1 2 cbr 210 ------- 2 1.0 2.1 81 112
+ 1.47625 1 2 cbr 210 ------- 2 1.0 2.1 127 164
d 1.47625 1 2 cbr 210 ------- 2 1.0 2.1 127 164
+ 1.48 1 2 cbr 210 ------- 2 1.0 2.1 128 165
d 1.48 1 2 cbr 210 ------- 2 1.0 2.1 128 165
+ 1.48375 1 2 cbr 210 ------- 2 1.0 2.1 129 166
d 1.48375 1 2 cbr 210 ------- 2 1.0 2.1 129 166
- 1.4872 1 2 cbr 210 ------- 2 1.0 2.1 90 121
+ 1.4875 1 2 cbr 210 ------- 2 1.0 2.1 130 167
+ 1.49125 1 2 cbr 210 ------- 2 1.0 2.1 131 168
d 1.49125 1 2 cbr 210 ------- 2 1.0 2.1 131 168
r 1.4922 1 2 cbr 210 ------- 2 1.0 2.1 86 117
+ 1.495 1 2 cbr 210 ------- 2 1.0 2.1 132 169
d 1.495 1 2 cbr 210 ------- 2 1.0 2.1 132 169
+ 1.49875 1 2 cbr 210 ------- 2 1.0 2.1 133 170
d 1.49875 1 2 cbr 210 ------- 2 1.0 2.1 133 170
+ 1.5025 1 2 cbr 210 ------- 2 1.0 2.1 134 171
d 1.5025 1 2 cbr 210 ------- 2 1.0 2.1 134 171
- 1.504 1 2 cbr 210 ------- 2 1.0 2.1 95 127
+ 1.50625 1 2 cbr 210 ------- 2 1.0 2.1 135 172
r 1.509 1 2 cbr 210 ------- 2 1.0 2.1 90 121
+ 1.51 1 2 cbr 210 ------- 2 1.0 2.1 136 173
d 1.51 1 2 cbr 210 ------- 2 1.0 2.1 136 173
+ 1.51375 1 2 cbr 210 ------- 2 1.0 2.1 137 174
d 1.51375 1 2 cbr 210 ------- 2 1.0 2.1 137 174
- 1.5148 0 2 tcp 1040 ------- 1 0.0 2.0 13 28
+ 1.5175 1 2 cbr 210 ------- 2 1.0 2.1 138 175
d 1.5175 1 2 cbr 210 ------- 2 1.0 2.1 138 175
r 1.5198 0 2 tcp 1040 ------- 1 0.0 2.0 12 18
+ 1.5198 2 0 ack 40 ------- 1 2.0 0.0 12 176
- 1.5198 2 0 ack 40 ------- 1 2.0 0.0 12 176
- 1.5208 1 2 cbr 210 ------- 2 1.0 2.1 99 133
+ 1.52125 1 2 cbr 210 ------- 2 1.0 2.1 139 177
+ 1.525 1 2 cbr 210 ------- 2 1.0 2.1 140 178
d 1.525 1 2 cbr 210 ------- 2 1.0 2.1 140 178
r 1.5258 1 2 cbr 210 ------- 2 1.0 2.1 95 127
r 1.528 2 0 ack 40 ------- 1 2.0 0.0 12 176
+ 1.528 0 2 tcp 1040 ------- 1 0.0 2.0 25 179
+ 1.528 0 2 tcp 1040 ------- 1 0.0 2.0 26 180
d 1.528 0 2 tcp 1040 ------- 1 0.0 2.0 26 180
+ 1.52875 1 2 cbr 210 ------- 2 1.0 2.1 141 181
d 1.52875 1 2 cbr 210 ------- 2 1.0 2.1 141 181
+ 1.5325 1 2 cbr 210 ------- 2 1.0 2.1 142 182
d 1.5325 1 2 cbr 210 ------- 2 1.0 2.1 142 182
+ 1.53625 1 2 cbr 210 ------- 2 1.0 2.1 143 183
d 1.53625 1 2 cbr 210 ------- 2 1.0 2.1 143 183
- 1.5376 1 2 cbr 210 ------- 2 1.0 2.1 104 138
+ 1.54 1 2 cbr 210 ------- 2 1.0 2.1 144 184
r 1.5426 1 2 cbr 210 ------- 2 1.0 2.1 99 133
+ 1.54375 1 2 cbr 210 ------- 2 1.0 2.1 145 185
d 1.54375 1 2 cbr 210 ------- 2 1.0 2.1 145 185
+ 1.5475 1 2 cbr 210 ------- 2 1.0 2.1 146 186
d 1.5475 1 2 cbr 210 ------- 2 1.0 2.1 146 186
+ 1.55125 1 2 cbr 210 ------- 2 1.0 2.1 147 187
d 1.55125 1 2 cbr 210 ------- 2 1.0 2.1 147 187
- 1.5544 1 2 cbr 210 ------- 2 1.0 2.1 108 142
+ 1.555 1 2 cbr 210 ------- 2 1.0 2.1 148 188
+ 1.55875 1 2 cbr 210 ------- 2 1.0 2.1 149 189
d 1.55875 1 2 cbr 210 ------- 2 1.0 2.1 149 189
r 1.5594 1 2 cbr 210 ------- 2 1.0 2.1 104 138
+ 1.5625 1 2 cbr 210 ------- 2 1.0 2.1 150 190
d 1.5625 1 2 cbr 210 ------- 2 1.0 2.1 150 190
+ 1.56625 1 2 cbr 210 ------- 2 1.0 2.1 151 191
d 1.56625 1 2 cbr 210 ------- 2 1.0 2.1 151 191
+ 1.57 1 2 cbr 210 ------- 2 1.0 2.1 152 192
d 1.57 1 2 cbr 210 ------- 2 1.0 2.1 152 192
- 1.5712 1 2 cbr 210 ------- 2 1.0 2.1 113 147
+ 1.57375 1 2 cbr 210 ------- 2 1.0 2.1 153 193
r 1.5762 1 2 cbr 210 ------- 2 1.0 2.1 108 142
+ 1.5775 1 2 cbr 210 ------- 2 1.0 2.1 154 194
d 1.5775 1 2 cbr 210 ------- 2 1.0 2.1 154 194
+ 1.58125 1 2 cbr 210 ------- 2 1.0 2.1 155 195
d 1.58125 1 2 cbr 210 ------- 2 1.0 2.1 155 195
+ 1.585 1 2 cbr 210 ------- 2 1.0 2.1 156 196
d 1.585 1 2 cbr 210 ------- 2 1.0 2.1 156 196
- 1.588 1 2 cbr 210 ------- 2 1.0 2.1 117 152
+ 1.58875 1 2 cbr 210 ------- 2 1.0 2.1 157 197
+ 1.5925 1 2 cbr 210 ------- 2 1.0 2.1 158 198
d 1.5925 1 2 cbr 210 ------- 2 1.0 2.1 158 198
r 1.593 1 2 cbr 210 ------- 2 1.0 2.1 113 147
+ 1.59625 1 2 cbr 210 ------- 2 1.0 2.1 159 199
d 1.59625 1 2 cbr 210 ------- 2 1.0 2.1 159 199
- 1.598 0 2 tcp 1040 ------- 1 0.0 2.0 14 29
+ 1.6 1 2 cbr 210 ------- 2 1.0 2.1 160 200
d 1.6 1 2 cbr 210 ------- 2 1.0 2.1 160 200
r 1.603 0 2 tcp 1040 ------- 1 0.0 2.0 13 28
+ 1.603 2 0 ack 40 ------- 1 2.0 0.0 13 201
- 1.603 2 0 ack 40 ------- 1 2.0 0.0 13 201
+ 1.60375 1 2 cbr 210 ------- 2 1.0 2.1 161 202
d 1.60375 1 2 cbr 210 ------- 2 1.0 2.1 161 202
- 1.6048 1 2 cbr 210 ------- 2 1.0 2.1 121 158
+ 1.6075 1 2 cbr 210 ------- 2 1.0 2.1 162 203
r 1.6098 1 2 cbr 210 ------- 2 1.0 2.1 117 152
r 1.6112 2 0 ack 40 ------- 1 2.0 0.0 13 201
+ 1.6112 0 2 tcp 1040 ------- 1 0.0 2.0 27 204
+ 1.6112 0 2 tcp 1040 ------- 1 0.0 2.0 28 205
d 1.6112 0 2 tcp 1040 ------- 1 0.0 2.0 28 205
+ 1.61125 1 2 cbr 210 ------- 2 1.0 2.1 163 206
d 1.61125 1 2 cbr 210 ------- 2 1.0 2.1 163 206
+ 1.615 1 2 cbr 210 ------- 2 1.0 2.1 164 207
d 1.615 1 2 cbr 210 ------- 2 1.0 2.1 164 207
+ 1.61875 1 2 cbr 210 ------- 2 1.0 2.1 165 208
d 1.61875 1 2 cbr 210 ------- 2 1.0 2.1 165 208
- 1.6216 1 2 cbr 210 ------- 2 1.0 2.1 126 163
+ 1.6225 1 2 cbr 210 ------- 2 1.0 2.1 166 209
+ 1.62625 1 2 cbr 210 ------- 2 1.0 2.1 167 210
d 1.62625 1 2 cbr 210 ------- 2 1.0 2.1 167 210
r 1.6266 1 2 cbr 210 ------- 2 1.0 2.1 121 158
+ 1.63 1 2 cbr 210 ------- 2 1.0 2.1 168 211
d 1.63 1 2 cbr 210 ------- 2 1.0 2.1 168 211
+ 1.63375 1 2 cbr 210 ------- 2 1.0 2.1 169 212
d 1.63375 1 2 cbr 210 ------- 2 1.0 2.1 169 212
+ 1.6375 1 2 cbr 210 ------- 2 1.0 2.1 170 213
d 1.6375 1 2 cbr 210 ------- 2 1.0 2.1 170 213
- 1.6384 1 2 cbr 210 ------- 2 1.0 2.1 130 167
+ 1.64125 1 2 cbr 210 ------- 2 1.0 2.1 171 214
r 1.6434 1 2 cbr 210 ------- 2 1.0 2.1 126 163
+ 1.645 1 2 cbr 210 ------- 2 1.0 2.1 172 215
d 1.645 1 2 cbr 210 ------- 2 1.0 2.1 172 215
+ 1.64875 1 2 cbr 210 ------- 2 1.0 2.1 173 216
d 1.64875 1 2 cbr 210 ------- 2 1.0 2.1 173 216
+ 1.6525 1 2 cbr 210 ------- 2 1.0 2.1 174 217
d 1.6525 1 2 cbr 210 ------- 2 1.0 2.1 174 217
- 1.6552 1 2 cbr 210 ------- 2 1.0 2.1 135 172
+ 1.65625 1 2 cbr 210 ------- 2 1.0 2.1 175 218
+ 1.66 1 2 cbr 210 ------- 2 1.0 2.1 176 219
d 1.66 1 2 cbr 210 ------- 2 1.0 2.1 176 219
r 1.6602 1 2 cbr 210 ------- 2 1.0 2.1 130 167
+ 1.66375 1 2 cbr 210 ------- 2 1.0 2.1 177 220
d 1.66375 1 2 cbr 210 ------- 2 1.0 2.1 177 220
+ 1.6675 1 2 cbr 210 ------- 2 1.0 2.1 178 221
d 1.6675 1 2 cbr 210 ------- 2 1.0 2.1 178 221
+ 1.67125 1 2 cbr 210 ------- 2 1.0 2.1 179 222
d 1.67125 1 2 cbr 210 ------- 2 1.0 2.1 179 222
- 1.672 1 2 cbr 210 ------- 2 1.0 2.1 139 177
+ 1.675 1 2 cbr 210 ------- 2 1.0 2.1 180 223
r 1.677 1 2 cbr 210 ------- 2 1.0 2.1 135 172
+ 1.67875 1 2 cbr 210 ------- 2 1.0 2.1 181 224
d 1.67875 1 2 cbr 210 ------- 2 1.0 2.1 181 224
- 1.6812 0 2 tcp 1040 ------- 1 0.0 2.0 15 53
+ 1.6825 1 2 cbr 210 ------- 2 1.0 2.1 182 225
d 1.6825 1 2 cbr 210 ------- 2 1.0 2.1 182 225
r 1.6862 0 2 tcp 1040 ------- 1 0.0 2.0 14 29
+ 1.6862 2 0 ack 40 ------- 1 2.0 0.0 14 226
- 1.6862 2 0 ack 40 ------- 1 2.0 0.0 14 226
+ 1.68625 1 2 cbr 210 ------- 2 1.0 2.1 183 227
d 1.68625 1 2 cbr 210 ------- 2 1.0 2.1 183 227
- 1.6888 1 2 cbr 210 ------- 2 1.0 2.1 144 184
+ 1.69 1 2 cbr 210 ------- 2 1.0 2.1 184 228
+ 1.69375 1 2 cbr 210 ------- 2 1.0 2.1 185 229
d 1.69375 1 2 cbr 210 ------- 2 1.0 2.1 185 229
r 1.6938 1 2 cbr 210 ------- 2 1.0 2.1 139 177
r 1.6944 2 0 ack 40 ------- 1 2.0 0.0 14 226
+ 1.6944 0 2 tcp 1040 ------- 1 0.0 2.0 29 230
+ 1.6944 0 2 tcp 1040 ------- 1 0.0 2.0 30 231
d 1.6944 0 2 tcp 1040 ------- 1 0.0 2.0 30 231
+ 1.6975 1 2 cbr 210 ------- 2 1.0 2.1 186 232
d 1.6975 1 2 cbr 210 ------- 2 1.0 2.1 186 232
+ 1.70125 1 2 cbr 210 ------- 2 1.0 2.1 187 233
d 1.70125 1 2 cbr 210 ------- 2 1.0 2.1 187 233
+ 1.705 1 2 cbr 210 ------- 2 1.0 2.1 188 234
d 1.705 1 2 cbr 210 ------- 2 1.0 2.1 188 234
- 1.7056 1 2 cbr 210 ------- 2 1.0 2.1 148 188
+ 1.70875 1 2 cbr 210 ------- 2 1.0 2.1 189 235
r 1.7106 1 2 cbr 210 ------- 2 1.0 2.1 144 184
+ 1.7125 1 2 cbr 210 ------- 2 1.0 2.1 190 236
d 1.7125 1 2 cbr 210 ------- 2 1.0 2.1 190 236
+ 1.71625 1 2 cbr 210 ------- 2 1.0 2.1 191 237
d 1.71625 1 2 cbr 210 ------- 2 1.0 2.1 191 237
+ 1.72 1 2 cbr 210 ------- 2 1.0 2.1 192 238
d 1.72 1 2 cbr 210 ------- 2 1.0 2.1 192 238
- 1.7224 1 2 cbr 210 ------- 2 1.0 2.1 153 193
+ 1.72375 1 2 cbr 210 ------- 2 1.0 2.1 193 239
r 1.7274 1 2 cbr 210 ------- 2 1.0 2.1 148 188
+ 1.7275 1 2 cbr 210 ------- 2 1.0 2.1 194 240
d 1.7275 1 2 cbr 210 ------- 2 1.0 2.1 194 240
+ 1.73125 1 2 cbr 210 ------- 2 1.0 2.1 195 241
d 1.73125 1 2 cbr 210 ------- 2 1.0 2.1 195 241
+ 1.735 1 2 cbr 210 ------- 2 1.0 2.1 196 242
d 1.735 1 2 cbr 210 ------- 2 1.0 2.1 196 242
+ 1.73875 1 2 cbr 210 ------- 2 1.0 2.1 197 243
d 1.73875 1 2 cbr 210 ------- 2 1.0 2.1 197 243
- 1.7392 1 2 cbr 210 ------- 2 1.0 2.1 157 197
+ 1.7425 1 2 cbr 210 ------- 2 1.0 2.1 198 244
r 1.7442 1 2 cbr 210 ------- 2 1.0 2.1 153 193
+ 1.74625 1 2 cbr 210 ------- 2 1.0 2.1 199 245
d 1.74625 1 2 cbr 210 ------- 2 1.0 2.1 199 245
+ 1.75 1 2 cbr 210 ------- 2 1.0 2.1 200 246
d 1.75 1 2 cbr 210 ------- 2 1.0 2.1 200 246
+ 1.75375 1 2 cbr 210 ------- 2 1.0 2.1 201 247
d 1.75375 1 2 cbr 210 ------- 2 1.0 2.1 201 247
- 1.756 1 2 cbr 210 ------- 2 1.0 2.1 162 203
+ 1.7575 1 2 cbr 210 ------- 2 1.0 2.1 202 248
r 1.761 1 2 cbr 210 ------- 2 1.0 2.1 157 197
+ 1.76125 1 2 cbr 210 ------- 2 1.0 2.1 203 249
d 1.76125 1 2 cbr 210 ------- 2 1.0 2.1 203 249
- 1.7644 0 2 tcp 1040 ------- 1 0.0 2.0 16 54
+ 1.765 1 2 cbr 210 ------- 2 1.0 2.1 204 250
d 1.765 1 2 cbr 210 ------- 2 1.0 2.1 204 250
+ 1.76875 1 2 cbr 210 ------- 2 1.0 2.1 205 251
d 1.76875 1 2 cbr 210 ------- 2 1.0 2.1 205 251
r 1.7694 0 2 tcp 1040 ------- 1 0.0 2.0 15 53
+ 1.7694 2 0 ack 40 ------- 1 2.0 0.0 15 252
- 1.7694 2 0 ack 40 ------- 1 2.0 0.0 15 252
+ 1.7725 1 2 cbr 210 ------- 2 1.0 2.1 206 253
d 1.7725 1 2 cbr 210 ------- 2 1.0 2.1 206 253
- 1.7728 1 2 cbr 210 ------- 2 1.0 2.1 166 209
+ 1.77625 1 2 cbr 210 ------- 2 1.0 2.1 207 254
r 1.7776 2 0 ack 40 ------- 1 2.0 0.0 15 252
+ 1.7776 0 2 tcp 1040 ------- 1 0.0 2.0 31 255
+ 1.7776 0 2 tcp 1040 ------- 1 0.0 2.0 32 256
d 1.7776 0 2 tcp 1040 ------- 1 0.0 2.0 32 256
r 1.7778 1 2 cbr 210 ------- 2 1.0 2.1 162 203
+ 1.78 1 2 cbr 210 ------- 2 1.0 2.1 208 257
d 1.78 1 2 cbr 210 ------- 2 1.0 2.1 208 257
+ 1.78375 1 2 cbr 210 ------- 2 1.0 2.1 209 258
d 1.78375 1 2 cbr 210 ------- 2 1.0 2.1 209 258
+ 1.7875 1 2 cbr 210 ------- 2 1.0 2.1 210 259
d 1.7875 1 2 cbr 210 ------- 2 1.0 2.1 210 259
- 1.7896 1 2 cbr 210 ------- 2 1.0 2.1 171 214
+ 1.79125 1 2 cbr 210 ------- 2 1.0 2.1 211 260
r 1.7946 1 2 cbr 210 ------- 2 1.0 2.1 166 209
+ 1.795 1 2 cbr 210 ------- 2 1.0 2.1 212 261
d 1.795 1 2 cbr 210 ------- 2 1.0 2.1 212 261
+ 1.79875 1 2 cbr 210 ------- 2 1.0 2.1 213 262
d 1.79875 1 2 cbr 210 ------- 2 1.0 2.1 213 262
+ 1.8025 1 2 cbr 210 ------- 2 1.0 2.1 214 263
d 1.8025 1 2 cbr 210 ------- 2 1.0 2.1 214 263
+ 1.80625 1 2 cbr 210 ------- 2 1.0 2.1 215 264
d 1.80625 1 2 cbr 210 ------- 2 1.0 2.1 215 264
- 1.8064 1 2 cbr 210 ------- 2 1.0 2.1 175 218
+ 1.81 1 2 cbr 210 ------- 2 1.0 2.1 216 265
r 1.8114 1 2 cbr 210 ------- 2 1.0 2.1 171 214
+ 1.81375 1 2 cbr 210 ------- 2 1.0 2.1 217 266
d 1.81375 1 2 cbr 210 ------- 2 1.0 2.1 217 266
+ 1.8175 1 2 cbr 210 ------- 2 1.0 2.1 218 267
d 1.8175 1 2 cbr 210 ------- 2 1.0 2.1 218 267
+ 1.82125 1 2 cbr 210 ------- 2 1.0 2.1 219 268
d 1.82125 1 2 cbr 210 ------- 2 1.0 2.1 219 268
- 1.8232 1 2 cbr 210 ------- 2 1.0 2.1 180 223
+ 1.825 1 2 cbr 210 ------- 2 1.0 2.1 220 269
r 1.8282 1 2 cbr 210 ------- 2 1.0 2.1 175 218
+ 1.82875 1 2 cbr 210 ------- 2 1.0 2.1 221 270
d 1.82875 1 2 cbr 210 ------- 2 1.0 2.1 221 270
+ 1.8325 1 2 cbr 210 ------- 2 1.0 2.1 222 271
d 1.8325 1 2 cbr 210 ------- 2 1.0 2.1 222 271
+ 1.83625 1 2 cbr 210 ------- 2 1.0 2.1 223 272
d 1.83625 1 2 cbr 210 ------- 2 1.0 2.1 223 272
+ 1.84 1 2 cbr 210 ------- 2 1.0 2.1 224 273
d 1.84 1 2 cbr 210 ------- 2 1.0 2.1 224 273
- 1.84 1 2 cbr 210 ------- 2 1.0 2.1 184 228
+ 1.84375 1 2 cbr 210 ------- 2 1.0 2.1 225 274
r 1.845 1 2 cbr 210 ------- 2 1.0 2.1 180 223
+ 1.8475 1 2 cbr 210 ------- 2 1.0 2.1 226 275
d 1.8475 1 2 cbr 210 ------- 2 1.0 2.1 226 275
- 1.8476 0 2 tcp 1040 ------- 1 0.0 2.0 17 79
+ 1.85125 1 2 cbr 210 ------- 2 1.0 2.1 227 276
d 1.85125 1 2 cbr 210 ------- 2 1.0 2.1 227 276
r 1.8526 0 2 tcp 1040 ------- 1 0.0 2.0 16 54
+ 1.8526 2 0 ack 40 ------- 1 2.0 0.0 16 277
- 1.8526 2 0 ack 40 ------- 1 2.0 0.0 16 277
+ 1.855 1 2 cbr 210 ------- 2 1.0 2.1 228 278
d 1.855 1 2 cbr 210 ------- 2 1.0 2.1 228 278
- 1.8568 1 2 cbr 210 ------- 2 1.0 2.1 189 235
+ 1.85875 1 2 cbr 210 ------- 2 1.0 2.1 229 279
r 1.8608 2 0 ack 40 ------- 1 2.0 0.0 16 277
+ 1.8608 0 2 tcp 1040 ------- 1 0.0 2.0 33 280
+ 1.8608 0 2 tcp 1040 ------- 1 0.0 2.0 34 281
d 1.8608 0 2 tcp 1040 ------- 1 0.0 2.0 34 281
r 1.8618 1 2 cbr 210 ------- 2 1.0 2.1 184 228
+ 1.8625 1 2 cbr 210 ------- 2 1.0 2.1 230 282
d 1.8625 1 2 cbr 210 ------- 2 1.0 2.1 230 282
+ 1.86625 1 2 cbr 210 ------- 2 1.0 2.1 231 283
d 1.86625 1 2 cbr 210 ------- 2 1.0 2.1 231 283
+ 1.87 1 2 cbr 210 ------- 2 1.0 2.1 232 284
d 1.87 1 2 cbr 210 ------- 2 1.0 2.1 232 284
- 1.8736 1 2 cbr 210 ------- 2 1.0 2.1 193 239
+ 1.87375 1 2 cbr 210 ------- 2 1.0 2.1 233 285
+ 1.8775 1 2 cbr 210 ------- 2 1.0 2.1 234 286
d 1.8775 1 2 cbr 210 ------- 2 1.0 2.1 234 286
r 1.8786 1 2 cbr 210 ------- 2 1.0 2.1 189 235
+ 1.88125 1 2 cbr 210 ------- 2 1.0 2.1 235 287
d 1.88125 1 2 cbr 210 ------- 2 1.0 2.1 235 287
+ 1.885 1 2 cbr 210 ------- 2 1.0 2.1 236 288
d 1.885 1 2 cbr 210 ------- 2 1.0 2.1 236 288
+ 1.88875 1 2 cbr 210 ------- 2 1.0 2.1 237 289
d 1.88875 1 2 cbr 210 ------- 2 1.0 2.1 237 289
- 1.8904 1 2 cbr 210 ------- 2 1.0 2.1 198 244
+ 1.8925 1 2 cbr 210 ------- 2 1.0 2.1 238 290
r 1.8954 1 2 cbr 210 ------- 2 1.0 2.1 193 239
+ 1.89625 1 2 cbr 210 ------- 2 1.0 2.1 239 291
d 1.89625 1 2 cbr 210 ------- 2 1.0 2.1 239 291